version 3
run Load90-0-20241209-00:33:16-37036
attr configname Load90
attr datetime 20241209-00:33:16
attr datetimef 20241209-003316
attr experiment Load90
attr inifile omnetpp.ini
attr iterationvars ""
attr iterationvarsd ""
attr iterationvarsf ""
attr measurement ""
attr network RadioSch2
attr processid 37036
attr repetition 0
attr replication #0
attr resultdir results
attr runnumber 0
attr seedset 0
config description "low job arrival rate"
config *.usersCount 10
config *.scheduler.nrOfChannels 30
config *.scheduler.schedulingPeriod 1ms
config **.user[*].generator.netwload 0.9
config **.user[*].generator.nrUsers 10
config **.user[*].generator.nrOfChannels 30
config **.user[*].generator.nrPackets 100
config network RadioSch2
config sim-time-limit 100s
config cpu-time-limit 300s

vector 0 RadioSch2.sink lifetime:vector ETV
attr recordingmode vector
attr title "Packet Lifetime"
attr unit s
vector 1 RadioSch2.sink hpLifetime:vector ETV
attr recordingmode vector
attr title "HP Packet Lifetime"
attr unit s
vector 2 RadioSch2.sink mpLifetime:vector ETV
attr recordingmode vector
attr title "MP Packet Lifetime"
attr unit s
vector 3 RadioSch2.sink lpLifetime:vector ETV
attr recordingmode vector
attr title "LP Packet Lifetime"
attr unit s
0	35	0.001	0.001
0	37	0.001	0.001
0	39	0.001	0.001
0	49	0.002	0.002
0	51	0.002	0.002
0	53	0.002	0.002
0	62	0.003	0.003
0	64	0.003	0.003
0	88	0.005	0.005
0	90	0.005	0.005
0	292	0.023	0.00259079679
0	376	0.03	0.000523166498
0	381	0.03	0.000844402223
0	407	0.032	0.00142635392
0	409	0.032	0.00486434061
0	432	0.034	0.000719985612
0	462	0.036	0.001806550686
0	522	0.041	0.0048145768
0	546	0.043	0.00017028013
0	595	0.047	0.000484045998
0	700	0.056	0.00058710795
0	725	0.058	0.000187022752
0	761	0.061	0.000552988418
0	810	0.065	0.002950825255
0	826	0.066	0.00082081197
0	882	0.07	0.001125769923
0	886	0.07	0.000408738733
0	905	0.072	0.002785891978
0	936	0.074	0.001720543115
0	954	0.076	0.003325838307
0	996	0.079	0.001046591444
0	1011	0.08	0.000871462824
0	1014	0.08	0.000400648936
0	1081	0.086	0.000879777387
0	1149	0.091	0.000365122354
0	1152	0.091	0.004011120468
0	1167	0.092	0.001519876448
0	1202	0.095	0.000160637611
0	1204	0.095	0.003135388132
0	1294	0.103	0.002833932693
0	1357	0.108	0.001187459469
0	1368	0.109	0.001573813245
0	1381	0.11	0.003359189986
0	1405	0.112	0.001575346919
0	1703	0.138	0.000180270678
0	1740	0.141	0.001731118288
0	1770	0.143	0.003614616794
0	1793	0.145	0.002414838853
0	1804	0.146	0.004190117763
0	2006	0.163	0.001058074447
0	2018	0.164	0.002247319519
0	2019	0.164	0.001045283425
0	2022	0.164	0.003741716931
0	2054	0.167	0.001871450963
0	2150	0.175	0.001805280703
0	2153	0.175	0.003029496388
0	2164	0.176	0.001909218091
0	2226	0.181	0.001966312533
0	2266	0.184	0.001592535471
0	2302	0.187	0.002140319258
0	2481	0.202	2.2777244e-05
0	2494	0.203	0.002264008488
0	2537	0.206	0.000468344638
0	2539	0.206	0.001528769994
0	2576	0.209	0.000640175741
0	2580	0.209	0.000547193762
0	2608	0.211	0.000850043549
0	2668	0.216	0.000301763963
0	2683	0.217	0.000170864271
0	2700	0.218	0.000751746607
0	2713	0.219	0.001134203689
0	2885	0.234	0.002805682542
0	2975	0.242	0.00059142265
0	3055	0.249	0.000794190965
0	3148	0.257	0.000592601424
0	3165	0.258	0.000651608058
0	3209	0.261	3.8139419e-05
0	3223	0.262	0.001138729257
0	3247	0.264	0.000616120703
0	3267	0.265	0.000615299146
0	3270	0.265	0.00354924466
0	3358	0.273	0.000389791895
0	3377	0.274	0.000819829821
0	3532	0.288	0.003464435278
0	3631	0.296	0.001197901583
0	3774	0.308	0.001579180795
0	3775	0.308	0.001392566504
0	3792	0.309	0.000740669926
0	3794	0.309	0.000119674707
0	3851	0.314	0.000382999229
0	3873	0.316	0.00072630797
0	3901	0.318	0.000925319404
0	3928	0.32	0.00192769554
0	3968	0.323	0.000805762318
0	4016	0.327	0.000921679594
0	4020	0.327	0.00099049931
0	4055	0.33	0.002664562068
0	4096	0.333	0.002141873681
0	4097	0.333	0.001791977873
0	4125	0.335	0.001294095392
0	4185	0.34	0.001329369579
0	4202	0.341	4.4916295e-05
0	4225	0.343	0.001466228999
0	4238	0.344	0.000893219189
0	4250	0.345	0.000501002772
0	4292	0.348	0.001331353681
0	4322	0.35	0.001390860195
0	4344	0.352	0.000566799748
0	4351	0.352	0.003732313964
0	4362	0.353	0.000667165287
0	4416	0.357	0.001322031308
0	4466	0.361	0.001480227039
0	4561	0.369	2.5297701e-05
0	4649	0.377	0.000478099945
0	4691	0.38	0.001857117673
0	4694	0.38	0.001108602792
0	4740	0.384	0.000513204375
0	4744	0.384	0.002392195885
0	4760	0.385	0.001837352337
0	4786	0.387	0.000539063938
0	4810	0.389	0.001660615695
0	4844	0.392	0.000703887135
0	4849	0.392	0.000272744119
0	4936	0.399	0.000873871688
0	4954	0.4	0.004526865272
0	4955	0.4	0.001558016034
0	4956	0.4	0.00096627757
0	4982	0.402	0.004059942914
0	4991	0.403	0.001122748178
0	5017	0.405	0.001826045247
0	5152	0.417	0.000964833349
0	5182	0.419	0.000719484817
0	5207	0.421	0.001273602065
0	5255	0.425	0.001275080281
0	5293	0.428	0.001866803259
0	5322	0.43	0.000428409355
0	5386	0.435	0.000502841343
0	5400	0.436	0.001971146146
0	5412	0.437	0.001262814271
0	5439	0.439	0.000212992515
0	5441	0.439	2.3441473e-05
0	5495	0.443	0.003735965043
0	5496	0.443	0.002841902286
0	5636	0.455	0.001131907826
0	5647	0.456	0.000295468993
0	5696	0.46	0.000244683377
0	5716	0.461	0.004079042736
0	5765	0.465	0.001523292187
0	5768	0.465	0.001312106407
0	5784	0.466	0.000981229422
0	5840	0.471	0.000529842657
0	5868	0.473	0.001197307617
0	5872	0.473	0.004962422994
0	6059	0.49	0.001540897879
0	6093	0.493	0.000218009054
0	6135	0.496	0.000605782516
0	6227	0.504	0.000646751252
0	6299	0.51	0.001567784921
0	6325	0.512	0.001102596815
0	6487	0.526	0.000578182206
0	6513	0.528	0.0033059937
0	6598	0.535	0.000203777762
0	6625	0.537	0.000521515717
0	6665	0.54	0.002171580643
0	6801	0.552	0.00093083702
0	6803	0.552	0.000538728552
0	6835	0.555	0.000720035929
0	6981	0.567	0.000225081288
0	6984	0.567	0.000867752011
0	7020	0.57	0.00161279948
0	7196	0.585	0.000290845532
0	7358	0.599	0.00141776811
0	7483	0.61	0.000469620352
0	7487	0.61	0.002161005292
0	7524	0.613	0.0001832489
0	7596	0.619	0.000322330981
0	7613	0.62	0.000391925222
0	7618	0.62	0.000697366519
0	7631	0.621	0.001352896673
0	7656	0.623	0.000706306691
0	7673	0.624	0.003445357152
0	7687	0.625	0.001758593331
0	7735	0.629	0.000601234649
0	7808	0.635	0.003554888925
0	7857	0.639	0.001582409659
0	7887	0.641	0.001597313245
0	7914	0.643	0.002880070903
0	7916	0.643	0.000476079575
0	8010	0.651	0.001859288729
0	8070	0.656	9.9796575e-05
0	8129	0.661	0.002560088898
0	8179	0.665	0.003427938194
0	8212	0.668	0.00025710113
0	8230	0.669	0.000684062152
0	8324	0.677	0.000136373616
0	8372	0.681	0.000653975152
0	8426	0.685	0.000473676396
0	8429	0.685	0.001717835165
0	8616	0.701	0.000302087665
0	8654	0.704	0.000571593391
0	8668	0.705	0.001051191329
0	8705	0.708	0.000369322191
0	8823	0.718	0.003984601188
0	8875	0.722	0.000586108002
0	8899	0.724	0.0027772164
0	8922	0.726	0.001465510981
0	8925	0.726	0.0004956905
0	8969	0.73	0.00092822148
0	9098	0.741	0.00079170691
0	9187	0.749	0.002049959351
0	9232	0.753	9.1910045e-05
0	9246	0.754	0.000621399993
0	9249	0.754	0.00024127051
0	9262	0.755	0.000343964385
0	9290	0.757	0.00086100252
0	9448	0.771	0.002675587711
0	9476	0.773	0.000316654753
0	9489	0.774	0.002569875511
0	9502	0.775	0.000228983085
0	9620	0.785	0.003843545134
0	9671	0.789	0.001055963024
0	9698	0.791	0.001370382637
0	9700	0.791	0.002438593749
0	9724	0.793	0.001607928575
0	9799	0.799	0.001483541896
0	9846	0.803	0.000479549916
0	9998	0.816	0.000387798833
0	10014	0.817	0.004663543549
0	10052	0.82	0.001937208366
0	10054	0.82	0.000502504133
0	10102	0.824	0.000132300466
0	10146	0.828	0.000608767754
0	10183	0.831	0.002839839961
0	10251	0.837	0.001997444098
0	10276	0.839	0.000705131752
0	10334	0.844	7.0632041e-05
0	10368	0.846	0.000497907007
0	10385	0.847	0.002951032678
0	10397	0.848	0.002321476625
0	10434	0.851	0.001004392487
0	10462	0.853	0.001971809377
0	10512	0.857	0.000115082933
0	10536	0.859	0.003389796728
0	10561	0.861	0.000374803303
0	10688	0.872	0.000731439475
0	10690	0.872	0.001745753895
0	10746	0.876	0.000463918939
0	10772	0.878	0.003958788486
0	10773	0.878	0.002502622135
0	10808	0.881	0.001995236664
0	10823	0.882	0.00036557003
0	10926	0.891	0.000984054385
0	10951	0.893	0.002759729483
0	11019	0.899	0.002664315381
0	11079	0.904	0.000378533242
0	11114	0.907	0.001907339224
0	11281	0.922	0.001588730154
0	11379	0.93	0.000785783675
0	11519	0.942	0.000296303542
0	11580	0.947	0.002002979436
0	11630	0.951	0.000713335457
0	11656	0.953	0.003414501258
0	11727	0.959	0.0011963145
0	11751	0.961	0.001834420506
0	11789	0.964	0.000296447032
0	11828	0.967	0.001421304309
0	12013	0.983	0.000679056878
0	12017	0.983	0.00255002064
0	12028	0.984	0.001849626885
0	12081	0.988	0.000288493951
0	12100	0.99	0.000574523771
0	12118	0.991	0.003023799902
0	12180	0.996	0.003032927529
0	12289	1.005	0.001307541067
0	12291	1.005	0.003490657056
0	12347	1.01	0.003038156309
0	12455	1.019	0.000269126066
0	12471	1.02	0.002647601006
0	12496	1.022	0.003498320343
0	12506	1.023	0.002570786023
0	12559	1.027	0.001632715431
0	12562	1.027	0.002569855319
0	12585	1.029	0.000407260882
0	12613	1.031	0.000431286651
0	12677	1.036	0.000860238318
0	12747	1.041	0.004455262909
0	12748	1.041	0.003817789027
0	12749	1.041	0.002240545277
0	12772	1.043	0.002814248798
0	12774	1.043	0.000375412252
0	12820	1.047	0.002138325526
0	12917	1.055	0.000423653638
0	12999	1.062	0.000275981062
0	13186	1.079	0.000890221194
0	13213	1.081	0.001395696971
0	13269	1.086	0.000965488024
0	13399	1.097	0.000789973461
0	13425	1.099	0.001625077444
0	13454	1.101	0.001999389701
0	13478	1.103	0.002675564552
0	13528	1.107	0.003761934457
0	13565	1.11	0.001668164423
0	13613	1.114	0.003600502654
0	13628	1.115	0.000112428212
0	13802	1.131	0.000651041623
0	13818	1.132	0.00133075435
0	13856	1.135	0.002514684219
0	13952	1.144	0.000836080358
0	13985	1.146	0.001208244876
0	14057	1.152	0.003282067454
0	14085	1.154	0.000187464153
0	14097	1.155	0.000182282845
0	14101	1.155	0.001384241683
0	14151	1.159	1.5718954e-05
0	14154	1.159	0.00052918744
0	14177	1.161	6.3675947e-05
0	14204	1.163	0.000267100958
0	14220	1.164	0.000434518355
0	14415	1.181	0.002193206489
0	14497	1.188	0.000201655594
0	14512	1.189	0.002172154446
0	14540	1.191	0.000698215792
0	14544	1.191	0.002228923878
0	14577	1.194	0.001368930156
0	14592	1.195	0.000101262896
0	14635	1.198	0.001336583353
0	14638	1.198	0.001022965963
0	14651	1.199	0.002990423288
0	14709	1.204	0.000636312472
0	14780	1.21	0.002864812733
0	14866	1.217	0.001094750438
0	14929	1.222	0.002796554026
0	14979	1.226	0.001239495413
0	15117	1.238	0.001526458234
0	15141	1.24	0.000480271721
0	15153	1.241	0.000403922851
0	15213	1.246	0.004125245799
0	15252	1.249	0.001639175574
0	15323	1.255	0.000670952805
0	15351	1.257	0.000534133457
0	15353	1.257	0.001393370672
0	15400	1.261	0.001825983626
0	15433	1.263	0.001798742677
0	15434	1.263	0.000769273076
0	15491	1.268	0.000811362832
0	15515	1.27	0.000302090652
0	15613	1.278	0.001876035458
0	15636	1.28	0.000750933289
0	15666	1.282	0.000432500912
0	15792	1.293	2.6223568e-05
0	15836	1.297	0.000875663565
0	15870	1.3	0.001008527544
0	15907	1.303	0.001367731411
0	15937	1.305	0.001247167741
0	15940	1.305	0.000308712039
0	15977	1.308	0.000752024472
0	16046	1.314	0.001599732305
0	16111	1.319	0.003824824194
0	16112	1.319	0.000376474711
0	16198	1.326	0.000695297076
0	16212	1.327	0.001098761671
0	16297	1.334	0.000173105006
0	16301	1.334	0.003698392854
0	16649	1.364	0.000542862735
0	16662	1.365	0.001724341544
0	16708	1.369	0.001129385284
0	16796	1.376	0.001341077692
0	16807	1.377	0.000530520411
0	16831	1.379	0.003263596291
0	16845	1.38	0.004455192
0	16857	1.381	0.000386439982
0	16959	1.39	0.000614345827
0	17037	1.396	0.001654945914
0	17052	1.397	0.002013387675
0	17067	1.398	0.002476370082
0	17079	1.399	0.003104960309
0	17100	1.401	0.003966705378
0	17167	1.407	0.000923298057
0	17203	1.41	0.000618914129
0	17282	1.416	0.002604517479
0	17292	1.417	0.001758843117
0	17329	1.42	0.000311330499
0	17355	1.422	0.000564505692
0	17436	1.429	0.00338343329
0	17451	1.43	0.000936637289
0	17526	1.436	0.000887482298
0	17609	1.443	6.5408501e-05
0	17774	1.457	0.00126264235
0	17824	1.461	0.002105811345
0	17825	1.461	0.001941994375
0	17856	1.463	0.000779862855
0	17858	1.463	0.001236773667
0	17871	1.464	0.001238365734
0	17930	1.469	0.000938336021
0	17948	1.47	0.000197957777
0	17963	1.471	0.002114362377
0	18005	1.474	0.000504589401
0	18027	1.476	0.00267298843
0	18055	1.478	0.00145680876
0	18126	1.484	0.000944085252
0	18175	1.488	9.3915111e-05
0	18190	1.489	0.004754453006
0	18226	1.492	0.000706129973
0	18306	1.499	0.000168466348
0	18395	1.506	0.002208983416
0	18454	1.511	0.000214633935
0	18522	1.516	0.001977075994
0	18534	1.517	0.001200879622
0	18620	1.524	0.002253092499
0	18639	1.526	0.002391684629
0	18665	1.528	0.002680292307
0	18773	1.537	0.00069911394
0	18776	1.537	0.004823382054
0	18822	1.541	0.000510603999
0	18907	1.548	0.001363160883
0	18934	1.55	4.4174018e-05
0	19075	1.562	0.001184773933
0	19079	1.562	0.001255246236
0	19103	1.564	0.00070524933
0	19107	1.564	0.001017580175
0	19285	1.58	0.001945839287
0	19309	1.582	0.002626098494
0	19347	1.585	0.002719452185
0	19348	1.585	0.001290122121
0	19359	1.586	0.000557657232
0	19422	1.591	8.0675308e-05
0	19449	1.593	0.000524095579
0	19510	1.598	0.001054947522
0	19546	1.601	0.000643503641
0	19611	1.606	0.001406721374
0	19648	1.609	0.000745934002
0	19650	1.609	0.000765704125
0	19689	1.612	0.000418906775
0	19713	1.614	0.003978908127
0	19774	1.619	0.000607450445
0	19813	1.622	0.000953110374
0	19828	1.623	0.001853604955
0	19874	1.627	0.001964959181
0	19901	1.629	0.000831592765
0	19902	1.629	0.000695630549
0	19996	1.637	0.000143928979
0	20062	1.642	0.003727423312
0	20084	1.644	0.000698416095
0	20107	1.646	0.004812355093
0	20169	1.651	0.000235869095
0	20172	1.651	0.00098231693
0	20281	1.66	0.001330730225
0	20285	1.66	0.003612633
0	20310	1.662	0.000706226093
0	20340	1.664	0.002545403798
0	20353	1.665	5.9230972e-05
0	20355	1.665	0.001209558771
0	20406	1.669	0.002637999341
0	20650	1.691	4.5607533e-05
0	20669	1.692	9.4911352e-05
0	20680	1.693	0.002357544548
0	20750	1.699	0.00162832448
0	20751	1.699	0.001587195531
0	20888	1.711	0.001914717715
0	20995	1.72	0.001566462224
0	21042	1.724	0.001106506745
0	21056	1.725	0.004912103941
0	21084	1.727	0.001256271204
0	21129	1.731	0.000936979603
0	21259	1.742	0.000873819648
0	21261	1.742	0.001331622382
0	21287	1.744	0.001980991182
0	21335	1.748	0.000356816486
0	21418	1.755	0.001380502952
0	21445	1.757	0.000425722965
0	21459	1.758	0.000971577855
0	21512	1.762	0.00084783609
0	21539	1.764	0.002969053214
0	21623	1.771	0.001719571697
0	21654	1.773	0.001724363004
0	21671	1.775	0.002129157091
0	21753	1.782	0.001829440233
0	21813	1.787	0.000880035023
0	21866	1.791	0.001188356327
0	21927	1.796	0.003531336906
0	21997	1.802	0.001752256201
0	22031	1.804	0.000733594855
0	22045	1.805	0.001911234307
0	22047	1.805	0.00129047858
0	22059	1.806	0.001404237114
0	22087	1.808	0.001256024695
0	22196	1.818	0.000956167256
0	22215	1.819	0.000794514285
0	22240	1.821	0.002440370922
0	22309	1.827	0.001084307259
0	22360	1.831	1.1454053e-05
0	22388	1.833	0.003830907333
0	22413	1.835	0.000154498248
0	22418	1.835	0.000293781966
0	22449	1.838	0.000527949479
0	22533	1.845	0.00114368106
0	22559	1.847	0.001193301225
0	22622	1.852	0.004335216359
0	22637	1.853	0.001869372631
0	22638	1.853	0.000712224224
0	22650	1.854	0.00016481909
0	22694	1.857	6.0022719e-05
0	22721	1.859	0.000715105199
0	22743	1.861	0.000961506576
0	22800	1.866	0.001485972834
0	22882	1.872	0.001979157592
0	22883	1.872	0.000542158234
0	22885	1.872	0.000600300334
0	22909	1.874	0.000743136095
0	22937	1.876	0.000645613028
0	23107	1.89	0.000341154257
0	23149	1.893	0.003056394452
0	23172	1.895	0.002811164689
0	23208	1.898	0.001953759176
0	23301	1.906	0.0016345268
0	23336	1.909	0.001306928097
0	23389	1.913	0.00190129267
0	23427	1.916	0.001094467565
0	23453	1.918	0.000534824444
0	23678	1.938	0.001692863438
0	23698	1.939	7.6165918e-05
0	23730	1.942	0.000797854283
0	23748	1.943	0.001727591888
0	23793	1.947	0.000523470252
0	23831	1.95	0.000495164108
0	23850	1.951	0.001884896704
0	23877	1.953	0.001689448004
0	23879	1.953	0.001256624276
0	23958	1.959	1.0943135e-05
0	23970	1.96	0.001178377744
0	23985	1.961	0.004439669739
0	23986	1.961	0.003685990837
0	24130	1.973	0.00011997619
0	24133	1.973	0.00106311597
0	24158	1.975	0.002088496299
0	24185	1.977	0.001570946619
0	24225	1.98	0.00135730272
0	24306	1.987	0.00014324667
0	24562	2.009	0.000567885122
0	24625	2.014	0.001964439935
0	24687	2.019	0.000474642634
0	24753	2.024	0.003905456885
0	24754	2.024	0.001407945012
0	24850	2.032	0.00148887876
0	24873	2.034	0.000843793707
0	24981	2.044	0.000277616819
0	25007	2.046	0.000321078807
0	25021	2.047	0.000598567021
0	25063	2.05	0.00097382718
0	25079	2.051	0.001822147681
0	25082	2.051	0.000555523058
0	25223	2.063	0.001945752162
0	25237	2.064	0.001493293419
0	25250	2.065	0.000927504164
0	25313	2.07	0.000581566872
0	25319	2.07	0.003098025796
0	25400	2.077	0.002680137424
0	25439	2.08	0.000232672705
0	25514	2.087	0.000165141759
0	25613	2.095	0.001905105278
0	25625	2.096	0.00142157044
0	25662	2.099	0.000694318944
0	25788	2.11	0.001268734686
0	25832	2.113	0.001585269841
0	25834	2.113	0.00117148452
0	25836	2.113	0.002736572667
0	25863	2.115	0.001592282254
0	25878	2.116	0.000405728661
0	25894	2.117	0.000411559077
0	25920	2.119	0.000646524722
0	25924	2.119	0.000736557842
0	25993	2.125	0.000977144511
0	26018	2.127	0.000460150668
0	26042	2.129	0.00027288337
0	26195	2.142	0.001583762775
0	26314	2.152	0.001040435646
0	26328	2.153	0.001487233801
0	26341	2.154	0.001470498545
0	26343	2.154	0.004287615313
0	26370	2.156	0.001168765927
0	26384	2.157	0.000385520278
0	26388	2.157	0.002774540016
0	26426	2.16	0.000797057741
0	26516	2.168	0.001107930986
0	26675	2.182	0.00099244558
0	26717	2.185	0.001273335616
0	26765	2.189	0.001897971061
0	26873	2.198	0.002749323415
0	26884	2.199	0.000251784031
0	26897	2.2	0.000591181724
0	26948	2.204	0.002058642865
0	27029	2.211	0.000294361708
0	27095	2.216	0.000407750528
0	27110	2.217	0.003713089627
0	27133	2.219	0.001515474982
0	27162	2.221	0.001882597912
0	27177	2.222	0.000992224682
0	27200	2.224	0.000492728173
0	27247	2.228	0.001202489797
0	27287	2.231	0.000486703661
0	27302	2.232	0.0016507902
0	27317	2.233	0.001867445277
0	27342	2.235	0.000319685248
0	27369	2.237	0.001864174756
0	27435	2.242	0.001632179631
0	27497	2.247	0.000604746031
0	27511	2.248	0.003792937888
0	27599	2.256	0.00295782867
0	27616	2.257	0.000408667832
0	27646	2.26	0.003333698893
0	27688	2.263	0.002974891199
0	27714	2.265	0.003835764468
0	27809	2.273	0.001806030758
0	27838	2.275	0.00088800318
0	27843	2.275	0.002418600999
0	27854	2.276	0.001334724539
0	27973	2.286	0.000152459689
0	28000	2.288	0.00197608923
0	28016	2.289	0.000993016865
0	28019	2.289	0.002680048419
0	28057	2.292	0.003165744212
0	28081	2.294	0.000570059666
0	28114	2.296	0.001498317019
0	28153	2.299	0.000885948225
0	28155	2.299	0.000402915303
0	28158	2.299	0.003669790564
0	28173	2.3	0.000403010895
0	28187	2.301	0.000849525999
0	28246	2.306	0.000185082308
0	28295	2.31	0.003733098532
0	28325	2.312	0.000733544149
0	28373	2.316	0.001346897111
0	28375	2.316	0.004518339437
0	28421	2.32	0.000348413414
0	28458	2.323	0.001629537232
0	28484	2.325	0.001914821245
0	28576	2.333	0.002051320078
0	28626	2.337	0.000591747118
0	28630	2.337	0.001898178955
0	28665	2.34	0.001311469243
0	28868	2.358	0.001866225519
0	28869	2.358	0.001203773809
0	28973	2.367	9.9848049e-05
0	28978	2.367	0.002155009444
0	29098	2.378	0.000194202323
0	29147	2.382	0.003237329585
0	29198	2.387	0.000910549132
0	29249	2.391	0.001859916564
0	29377	2.402	0.00399490691
0	29489	2.412	0.001209895818
0	29503	2.413	0.00039776968
0	29507	2.413	0.001495814689
0	29520	2.414	0.001869946922
0	29593	2.42	0.003691495394
0	29651	2.425	0.000430816116
0	29730	2.431	0.000148752881
0	29775	2.435	0.000984866646
0	29793	2.436	0.000672378162
0	29852	2.441	0.000140162059
0	29863	2.442	0.001421289971
0	29888	2.444	0.003279835893
0	29902	2.445	0.001436750178
0	29972	2.451	0.00059833488
0	30005	2.453	0.001658021118
0	30006	2.453	0.000549837162
0	30034	2.455	0.001482225278
0	30049	2.456	0.000798827672
0	30064	2.457	0.002704518663
0	30091	2.459	0.001878228618
0	30134	2.463	0.000350434724
0	30163	2.465	0.000980927772
0	30164	2.465	0.000691501905
0	30181	2.466	0.000400168841
0	30245	2.471	1.2275974e-05
0	30248	2.471	0.000974029317
0	30250	2.471	0.000607194879
0	30275	2.473	0.000608733877
0	30313	2.476	0.00140366664
0	30330	2.477	0.000679959041
0	30436	2.487	0.001486936622
0	30473	2.49	0.000330846563
0	30528	2.494	5.4080446e-05
0	30530	2.494	0.000796227623
0	30531	2.494	0.000517293967
0	30534	2.494	0.001427914874
0	30596	2.499	0.002162964206
0	30621	2.501	4.7813424e-05
0	30671	2.505	0.001769423884
0	30815	2.518	0.002250922686
0	30840	2.52	0.001836561928
0	30882	2.523	0.001288164011
0	30907	2.525	0.000549856986
0	30937	2.527	1.8708711e-05
0	30939	2.527	0.000564998896
0	31010	2.533	0.00230081203
0	31139	2.544	0.000918484245
0	31189	2.548	0.001243718864
0	31202	2.549	0.00302905427
0	31243	2.552	0.002702003242
0	31257	2.553	0.000432036736
0	31282	2.555	0.000789740241
0	31373	2.563	0.001463638466
0	31401	2.565	0.000273538324
0	31485	2.572	0.000304573136
0	31489	2.572	0.002516689731
0	31525	2.575	0.001054167205
0	31593	2.581	0.00088344564
0	31639	2.585	0.000225853588
0	31723	2.591	7.0099851e-05
0	31725	2.591	0.000218590529
0	31736	2.592	0.001864149274
0	31737	2.592	0.000123118219
0	31862	2.603	0.000615636433
0	31923	2.608	0.002220514632
0	31973	2.612	0.000398897362
0	32017	2.616	0.000720522236
0	32215	2.634	2.8775918e-05
0	32324	2.643	0.000805619569
0	32370	2.647	0.000691687493
0	32387	2.648	0.001225580789
0	32391	2.648	0.000149218354
0	32427	2.651	0.000971320593
0	32486	2.656	0.000855769296
0	32529	2.659	0.002306725661
0	32538	2.66	0.001662953641
0	32654	2.67	0.000964054831
0	32671	2.671	0.000329923529
0	32694	2.673	0.003135466687
0	32707	2.674	0.000681783763
0	32781	2.68	0.000642253607
0	32806	2.682	0.000870874631
0	32895	2.689	0.0009478957
0	32922	2.691	0.00272481855
0	32970	2.695	0.001390198493
0	33030	2.7	0.002363065198
0	33031	2.7	0.001034332028
0	33103	2.706	0.001610994528
0	33130	2.708	0.000714546353
0	33135	2.708	6.105399e-06
0	33195	2.713	0.000884789845
0	33220	2.715	0.001315371902
0	33249	2.717	8.0777855e-05
0	33286	2.72	0.000388331657
0	33299	2.721	0.002433223611
0	33341	2.724	0.001431372166
0	33393	2.728	0.000218067649
0	33405	2.729	0.001600939204
0	33445	2.732	0.000728987509
0	33462	2.733	0.000892476675
0	33523	2.738	0.000408934208
0	33547	2.74	0.000327737588
0	33565	2.741	0.000195059707
0	33612	2.745	0.000220279269
0	33639	2.747	0.000365073595
0	33670	2.749	0.002412497978
0	33762	2.758	0.002921160753
0	33791	2.76	0.000988148088
0	33795	2.76	0.001459619938
0	33808	2.761	0.002703412792
0	33909	2.769	0.002012173303
0	33911	2.769	0.001646156998
0	33912	2.769	0.00147238907
0	33930	2.771	0.000867485006
0	34020	2.778	0.000270970252
0	34047	2.78	0.003236700576
0	34058	2.781	0.000836351369
0	34077	2.782	0.000661587709
0	34092	2.783	0.003414837309
0	34102	2.784	0.004479591577
0	34137	2.787	0.005156018405
0	34189	2.791	0.001115655239
0	34192	2.791	0.002916062109
0	34213	2.793	0.000839424102
0	34296	2.8	0.00040346625
0	34334	2.803	0.001828490481
0	34369	2.806	0.002325223864
0	34458	2.814	0.000367583793
0	34595	2.826	0.000709352649
0	34899	2.852	0.001313047058
0	34949	2.856	0.000256129109
0	34955	2.856	0.003068374715
0	34979	2.858	0.000422707534
0	34993	2.859	0.001302858196
0	35065	2.865	0.000988353981
0	35104	2.868	0.001867601471
0	35131	2.87	0.000548103918
0	35223	2.878	0.002511561726
0	35307	2.885	0.001770235354
0	35324	2.886	0.001382301625
0	35337	2.887	0.001917970375
0	35368	2.889	0.000431200476
0	35381	2.89	0.000467899634
0	35382	2.89	0.000426041644
0	35396	2.891	0.000615427771
0	35463	2.896	0.000906303178
0	35509	2.9	0.000515062009
0	35544	2.903	0.000148282441
0	35608	2.908	0.002881067933
0	35619	2.909	0.000586225372
0	35655	2.912	0.000158045266
0	35687	2.914	0.001815221814
0	35702	2.915	0.002980977398
0	35739	2.918	0.001137943171
0	35766	2.92	0.001289813574
0	35803	2.923	5.5175516e-05
0	35887	2.93	0.000817249325
0	35936	2.934	0.000886977213
0	35938	2.934	0.00156355817
0	36073	2.946	4.9203116e-05
0	36077	2.946	0.00039202459
0	36115	2.949	0.001966671355
0	36118	2.949	0.002230855018
0	36154	2.952	0.00079511635
0	36203	2.956	2.7220883e-05
0	36279	2.962	0.001394299436
0	36291	2.963	0.000197250687
0	36332	2.966	0.001712767542
0	36542	2.984	0.000926393989
0	36591	2.988	0.001125246971
0	36649	2.993	0.001854804762
0	36688	2.996	0.000114748979
0	36702	2.997	0.000345570891
0	36729	2.999	0.000575183376
0	36779	3.003	0.001505755703
0	36819	3.006	0.001659868584
0	36821	3.006	0.00210403554
0	36848	3.008	0.001554027303
0	36887	3.011	0.001853042079
0	36980	3.019	0.001091705118
0	37037	3.024	0.002229366971
0	37063	3.026	0.001586575961
0	37160	3.034	0.000987398143
0	37183	3.036	0.002133352573
0	37256	3.043	0.000901854377
0	37306	3.047	0.000865338304
0	37336	3.049	1.9400427e-05
0	37350	3.05	0.000708409077
0	37352	3.05	0.000785848491
0	37368	3.051	0.00013700818
0	37490	3.061	0.001910793366
0	37504	3.062	0.00066204878
0	37519	3.063	0.000284735258
0	37581	3.068	0.001831706372
0	37620	3.071	0.001060822843
0	37667	3.075	0.001478732653
0	37704	3.078	0.002614619631
0	37742	3.081	0.000448359709
0	37770	3.083	0.002199986334
0	37794	3.085	0.002952487783
0	37813	3.086	0.001914435127
0	37837	3.088	0.000408871481
0	37852	3.089	0.003782755969
0	37981	3.1	0.000191665883
0	38039	3.105	0.000108255135
0	38079	3.108	0.000629939574
0	38085	3.108	8.7218734e-05
0	38112	3.11	0.001728043447
0	38124	3.111	0.001266625912
0	38192	3.116	0.002618437492
0	38193	3.116	0.000730905678
0	38326	3.128	0.001820668558
0	38327	3.128	0.000652199851
0	38383	3.133	0.000318288973
0	38410	3.135	0.000852359688
0	38453	3.138	0.001740914961
0	38480	3.14	0.000553603395
0	38483	3.14	0.002447371513
0	38496	3.141	0.000361629984
0	38526	3.143	0.001216299466
0	38537	3.144	0.000491594636
0	38586	3.148	6.595077e-05
0	38733	3.161	0.001156578112
0	38770	3.164	0.000752033497
0	38786	3.165	0.000687817948
0	38825	3.168	0.000599213701
0	38865	3.171	0.002798672124
0	38958	3.179	0.001190987044
0	38988	3.181	0.000670426202
0	38990	3.181	0.000898703757
0	38993	3.181	0.000419176545
0	39098	3.19	0.000573688553
0	39127	3.192	0.002801369814
0	39213	3.199	0.000804987337
0	39225	3.2	0.000229084175
0	39242	3.201	0.003133790616
0	39279	3.204	0.001511416333
0	39280	3.204	0.001222414211
0	39331	3.208	0.002210284528
0	39371	3.211	0.000964756417
0	39383	3.212	0.001326654697
0	39397	3.213	0.00228285831
0	39448	3.217	0.000407981687
0	39451	3.217	0.002428988308
0	39463	3.218	6.0610242e-05
0	39613	3.231	0.000710257731
0	39684	3.237	8.8790426e-05
0	39712	3.239	0.000773952379
0	39728	3.24	0.001326073916
0	39760	3.242	0.000751000362
0	39761	3.242	0.000228501467
0	39809	3.246	0.000112018016
0	39839	3.248	0.003001714023
0	39869	3.251	0.000250189287
0	39899	3.253	0.000246175434
0	39914	3.254	0.001032350495
0	39942	3.256	0.002748936308
0	39963	3.258	0.000332254022
0	39966	3.258	0.002616071988
0	40029	3.263	0.000228199964
0	40076	3.267	0.001010237314
0	40236	3.28	0.00385916634
0	40248	3.281	0.003283931565
0	40263	3.282	0.000165700964
0	40467	3.3	0.001572406338
0	40480	3.301	0.000156720826
0	40554	3.307	0.00085432896
0	40558	3.307	0.001184127979
0	40607	3.311	0.002822549412
0	40670	3.316	0.000809878752
0	40672	3.316	0.000863924119
0	40690	3.317	0.000533777214
0	40694	3.317	0.000153313607
0	40741	3.321	0.003173426656
0	40750	3.322	0.002721821452
0	40811	3.327	0.000154745537
0	40849	3.33	0.0001991947
0	40887	3.333	0.001140221846
0	40938	3.337	0.001525716059
0	40962	3.339	0.00078146319
0	41033	3.345	0.00041179406
0	41061	3.347	0.001439369743
0	41205	3.36	0.000760300759
0	41256	3.364	0.000662115137
0	41327	3.37	0.00189113738
0	41397	3.376	0.001042543489
0	41410	3.377	0.000237036171
0	41447	3.38	0.00141013716
0	41474	3.382	0.000870077813
0	41536	3.387	0.001549564051
0	41551	3.388	0.000465820799
0	41657	3.397	0.000678988801
0	41660	3.397	0.002853388704
0	41675	3.398	0.001688776939
0	41679	3.398	0.000595973004
0	41704	3.4	0.000179130855
0	41706	3.4	0.000570982642
0	41827	3.411	0.000623835801
0	41853	3.413	0.000720772173
0	41876	3.415	0.000596735862
0	41901	3.417	0.000123288327
0	42016	3.427	0.001002097419
0	42087	3.433	0.001733637361
0	42120	3.436	0.002041353806
0	42235	3.446	0.000282686269
0	42341	3.455	0.001421502097
0	42356	3.456	0.000232175373
0	42449	3.464	0.001604655355
0	42496	3.468	0.000672012227
0	42670	3.483	0.0008892396
0	42784	3.492	0.001035987001
0	42807	3.494	0.00337251851
0	42900	3.502	0.001354238935
0	42925	3.504	0.000924141364
0	42998	3.51	0.001826681737
0	43036	3.513	0.001002580555
0	43061	3.515	0.000682583703
0	43065	3.515	0.001634914553
0	43082	3.516	0.000886998391
0	43108	3.518	0.001897613919
0	43185	3.524	7.4362539e-05
0	43188	3.524	0.001698881275
0	43203	3.525	0.000859506502
0	43228	3.527	0.000560555595
0	43291	3.532	0.000401641182
0	43395	3.541	0.000183914979
0	43424	3.543	0.000271016445
0	43444	3.544	0.000454090323
0	43455	3.545	0.001140716248
0	43526	3.551	0.00019275863
0	43556	3.553	0.001415458164
0	43710	3.567	0.000351187362
0	43737	3.569	5.4924326e-05
0	43791	3.573	0.001413459811
0	43792	3.573	0.000417428082
0	43820	3.575	0.002834960096
0	43868	3.579	0.001452852801
0	43883	3.58	0.002315709436
0	43909	3.582	0.002744363195
0	43913	3.582	0.001334632789
0	44002	3.59	0.000756921112
0	44029	3.592	0.001662260531
0	44154	3.602	0.002473181022
0	44155	3.602	0.001561762542
0	44253	3.611	0.00221463095
0	44282	3.613	0.000501833594
0	44285	3.613	0.000584224676
0	44324	3.616	0.000656925996
0	44338	3.617	0.001114296872
0	44370	3.62	0.00080087879
0	44415	3.623	0.002542463708
0	44419	3.623	9.6660234e-05
0	44432	3.624	0.002925100247
0	44468	3.627	0.000253985773
0	44533	3.632	0.003383454735
0	44605	3.638	0.003577238296
0	44653	3.642	0.000887777281
0	44659	3.642	0.001763698873
0	44727	3.648	2.7042238e-05
0	44788	3.653	0.000426734145
0	44799	3.654	0.001569507268
0	44906	3.663	0.002844939486
0	44943	3.666	0.002124309356
0	44967	3.668	0.000859471056