version 3
run Load70-0-20241209-00:27:39-7832
attr configname Load70
attr datetime 20241209-00:27:39
attr datetimef 20241209-002739
attr experiment Load70
attr inifile omnetpp.ini
attr iterationvars ""
attr iterationvarsd ""
attr iterationvarsf ""
attr measurement ""
attr network RadioSch2
attr processid 7832
attr repetition 0
attr replication #0
attr resultdir results
attr runnumber 0
attr seedset 0
config description "low job arrival rate"
config *.usersCount 10
config *.scheduler.nrOfChannels 30
config *.scheduler.schedulingPeriod 1ms
config **.user[*].generator.netwload 0.7
config **.user[*].generator.nrUsers 10
config **.user[*].generator.nrOfChannels 30
config **.user[*].generator.nrPackets 100
config network RadioSch2
config sim-time-limit 100s
config cpu-time-limit 300s

vector 0 RadioSch2.sink lifetime:vector ETV
attr recordingmode vector
attr title "Packet Lifetime"
attr unit s
vector 1 RadioSch2.sink hpLifetime:vector ETV
attr recordingmode vector
attr title "HP Packet Lifetime"
attr unit s
vector 2 RadioSch2.sink mpLifetime:vector ETV
attr recordingmode vector
attr title "MP Packet Lifetime"
attr unit s
vector 3 RadioSch2.sink lpLifetime:vector ETV
attr recordingmode vector
attr title "LP Packet Lifetime"
attr unit s
0	35	0.001	0.001
0	37	0.001	0.001
0	39	0.001	0.001
0	49	0.002	0.002
0	51	0.002	0.002
0	53	0.002	0.002
0	62	0.003	0.003
0	64	0.003	0.003
0	88	0.005	0.005
0	90	0.005	0.005
0	336	0.027	0.000759595873
0	462	0.038	0.000101214068
0	478	0.039	0.001514231429
0	525	0.043	0.000211410072
0	549	0.045	0.001036993739
0	581	0.047	0.001770670226
0	617	0.05	0.003475884457
0	629	0.051	2.6800088e-05
0	735	0.06	0.000193773426
0	763	0.062	0.000971578318
0	812	0.066	0.000330005817
0	1059	0.088	0.00037561881
0	1098	0.091	0.002447418473
0	1100	0.091	0.001525521228
0	1137	0.094	0.00106926972
0	1250	0.104	0.001660107293
0	1303	0.108	0.000254725636
0	1444	0.12	0.000892368582
0	1492	0.124	0.004877271727
0	1493	0.124	1.8206286e-05
0	1614	0.135	0.001149199804
0	1628	0.136	0.000465475253
0	1668	0.139	0.001609595069
0	1771	0.148	0.000469868327
0	1832	0.153	0.000306781056
0	1898	0.158	0.002311729407
0	1901	0.158	0.000718050195
0	1931	0.16	0.001127201423
0	1953	0.162	0.000943320025
0	1972	0.163	5.6526505e-05
0	1974	0.163	0.00056205504
0	2009	0.166	0.001572702777
0	2102	0.174	0.002367229368
0	2169	0.18	0.001851797489
0	2355	0.196	0.001823294705
0	2408	0.201	0.000508299183
0	2425	0.202	0.000868948617
0	2516	0.21	0.002683509184
0	2636	0.221	1.3650317e-05
0	2717	0.228	0.002473573687
0	2764	0.232	0.001913677565
0	2807	0.235	0.000997351686
0	2836	0.237	0.000349125355
0	2848	0.238	0.003171582321
0	2871	0.24	0.00329497759
0	2919	0.244	0.002626482085
0	2942	0.246	0.000391473505
0	2979	0.249	0.002817399186
0	3007	0.251	0.001081931288
0	3080	0.257	0.000779150189
0	3147	0.263	0.001242907961
0	3206	0.268	0.000969019509
0	3285	0.275	0.001356767328
0	3334	0.279	0.002471907631
0	3450	0.289	0.000903349757
0	3520	0.295	0.000937669756
0	3521	0.295	0.000451233256
0	3550	0.297	0.000165129441
0	3554	0.297	0.001062598125
0	3569	0.298	0.000660541892
0	3627	0.303	0.000303702016
0	3747	0.313	0.000339506018
0	3852	0.322	0.00080106096
0	3870	0.323	0.000453635052
0	3928	0.328	0.000229025989
0	4029	0.336	0.000797277987
0	4055	0.338	0.00324129827
0	4056	0.338	0.003081050561
0	4083	0.34	0.001604052486
0	4118	0.343	0.000323502281
0	4156	0.346	0.0008062505
0	4160	0.346	0.000832540441
0	4175	0.347	0.000835379692
0	4273	0.356	0.000729001952
0	4297	0.357	0.000391887046
0	4301	0.357	0.00012370439
0	4323	0.359	0.001723570569
0	4337	0.36	0.003850557784
0	4349	0.361	9.3574927e-05
0	4393	0.365	0.000773341094
0	4454	0.37	0.000542997612
0	4564	0.379	0.001992922832
0	4599	0.382	0.001680792308
0	4647	0.386	0.001632837137
0	4691	0.389	0.000782692865
0	4693	0.389	0.000338130949
0	4696	0.389	0.00089639704
0	4735	0.392	0.00056606346
0	4745	0.393	0.002863300044
0	4782	0.396	0.000792387593
0	4967	0.412	0.000247621564
0	5116	0.425	0.000197162667
0	5179	0.43	0.001274775433
0	5278	0.438	0.001185635627
0	5291	0.439	0.000928967272
0	5330	0.442	9.040947e-05
0	5399	0.448	0.000578877746
0	5437	0.451	0.001113245745
0	5486	0.455	0.001707060234
0	5526	0.458	0.001275580436
0	5564	0.461	0.001620527624
0	5648	0.468	0.000743662544
0	5665	0.469	0.000314976067
0	5747	0.476	0.000707077656
0	5806	0.481	0.000290260007
0	6001	0.498	0.000297437439
0	6138	0.51	0.002132294938
0	6178	0.513	0.000902142923
0	6224	0.517	0.002332945626
0	6346	0.528	0.000844026054
0	6538	0.545	0.001097126176
0	6612	0.551	3.915629e-06
0	6638	0.553	5.454412e-05
0	6663	0.555	0.000443372052
0	6691	0.557	5.7595136e-05
0	6717	0.559	0.000313057682
0	6780	0.564	0.001787844312
0	6782	0.564	0.000212918352
0	6851	0.57	0.00016739451
0	6971	0.58	0.00134261516
0	6995	0.582	0.001302701414
0	7034	0.585	0.001523351823
0	7077	0.588	0.000400897551
0	7204	0.599	7.2489823e-05
0	7246	0.603	0.000545679798
0	7371	0.614	0.000894239103
0	7389	0.615	0.000319794961
0	7437	0.619	0.000455682705
0	7592	0.632	0.001783757994
0	7619	0.634	0.000930766159
0	7669	0.638	0.002783172325
0	7682	0.639	0.001892038797
0	7812	0.65	0.001402617168
0	7932	0.66	0.000551433971
0	7936	0.66	0.002032819432
0	7947	0.661	0.003231382637
0	7981	0.664	0.000121291418
0	8034	0.668	0.0019411589
0	8037	0.668	0.002705805771
0	8122	0.676	0.002543999566
0	8256	0.687	0.002326495671
0	8361	0.696	0.001277056449
0	8422	0.701	0.000357563335
0	8459	0.704	0.004554334321
0	8532	0.71	2.2854008e-05
0	8556	0.712	0.002127341999
0	8572	0.713	5.0553092e-05
0	8575	0.713	0.000311577292
0	8668	0.721	0.001608895486
0	8728	0.726	0.000811908793
0	8767	0.729	0.001492132062
0	8872	0.738	0.002447479672
0	8982	0.747	0.001895917306
0	9029	0.751	0.004290445596
0	9062	0.754	0.000678882585
0	9090	0.756	2.6508794e-05
0	9123	0.759	0.000942845071
0	9157	0.762	0.00088385327
0	9233	0.768	0.000134897462
0	9322	0.775	0.000735442059
0	9369	0.779	0.002341552718
0	9409	0.782	0.001566039661
0	9437	0.784	0.002277606945
0	9449	0.785	0.001930880365
0	9522	0.791	0.000352664877
0	9557	0.794	0.003484293083
0	9572	0.795	0.000331559426
0	9822	0.817	0.000562862261
0	9885	0.822	0.002257375727
0	9923	0.825	0.000362812109
0	9936	0.826	0.001417357411
0	10018	0.833	0.000731393792
0	10109	0.84	0.002477363411
0	10110	0.84	0.000942412998
0	10111	0.84	0.000587717634
0	10195	0.847	0.000925630595
0	10236	0.85	0.00193264227
0	10318	0.857	0.000840296123
0	10352	0.86	0.002886946365
0	10464	0.869	0.001138345187
0	10467	0.869	0.000149488847
0	10556	0.876	0.00090536525
0	10558	0.876	0.002602023362
0	10581	0.878	0.004656812471
0	10644	0.883	0.000363107769
0	10660	0.884	0.000842780133
0	10663	0.884	0.001629641557
0	10675	0.885	9.7981634e-05
0	10725	0.889	0.000660911756
0	10791	0.894	0.00088808152
0	10807	0.895	0.001581821833
0	10832	0.897	0.00193344413
0	10872	0.9	0.000395809137
0	10908	0.903	0.000968675813
0	10989	0.91	0.000916150682
0	11157	0.925	0.00076679543
0	11173	0.926	0.000725039866
0	11198	0.928	0.001868206714
0	11268	0.934	0.000673579048
0	11471	0.953	0.000814700581
0	11693	0.973	1.5011273e-05
0	11733	0.976	0.00041675106
0	11747	0.977	0.000859892251
0	11770	0.979	0.000710540433
0	11821	0.983	0.001766485537
0	11854	0.986	0.002074664302
0	11909	0.99	0.002435367978
0	11957	0.994	0.001921275404
0	11961	0.994	0.001307529264
0	12032	1	0.000458348052
0	12140	1.01	0.000636327117
0	12164	1.012	0.000949204704
0	12205	1.015	0.001096600263
0	12218	1.016	0.000234473225
0	12332	1.026	0.002431083211
0	12429	1.034	0.000955590643
0	12444	1.035	0.000146501324
0	12484	1.038	0.003643492771
0	12510	1.04	0.000803194139
0	12544	1.043	0.001919960875
0	12644	1.051	0.001764832696
0	12670	1.053	0.002538784551
0	12914	1.075	0.000490789224
0	12964	1.079	0.000476238084
0	13034	1.085	0.000139712579
0	13108	1.091	0.000600875867
0	13294	1.107	0.00039016748
0	13318	1.109	0.001719868938
0	13388	1.115	0.003795729089
0	13449	1.12	0.000172947217
0	13452	1.12	0.001491587799
0	13564	1.13	0.003506596497
0	13628	1.136	0.002542255614
0	13747	1.146	0.002341682429
0	13816	1.152	0.000179583997
0	13863	1.156	0.002557760098
0	13898	1.159	0.000905858183
0	13949	1.163	0.001531573814
0	13965	1.164	0.000256800962
0	13976	1.165	0.000926336015
0	14101	1.176	0.000343598099
0	14263	1.19	0.000551473395
0	14313	1.194	0.001389043334
0	14353	1.197	0.001638385067
0	14567	1.215	0.00099098635
0	14589	1.217	0.002829414429
0	14592	1.217	0.001593044883
0	14662	1.223	0.003863388824
0	14690	1.225	6.9174678e-05
0	14724	1.228	0.000239932661
0	14727	1.228	0.002077980958
0	14882	1.241	0.000570387361
0	14965	1.248	0.001551325912
0	15037	1.254	0.000630712722
0	15063	1.256	0.001239764525
0	15187	1.266	0.000178699622
0	15258	1.272	0.001643909302
0	15330	1.278	0.001678982023
0	15357	1.28	0.000159382309
0	15376	1.281	0.000557824352
0	15389	1.282	0.001766183273
0	15448	1.287	0.000307979467
0	15528	1.294	0.000907957005
0	15558	1.296	0.000711096791
0	15688	1.307	0.000348184332
0	15745	1.312	0.000963635743
0	15773	1.314	0.002894012917
0	15784	1.315	0.000642794704
0	15828	1.318	3.8315087e-05
0	15831	1.318	0.000673322701
0	15882	1.323	0.0005754754
0	15933	1.327	0.00077188462
0	15946	1.328	0.001253496424
0	16039	1.336	0.000616643953
0	16076	1.339	0.000671784061
0	16188	1.349	0.000355573491
0	16351	1.363	0.000399256571
0	16367	1.364	0.002274138641
0	16417	1.368	0.000733370929
0	16430	1.369	0.002677411697
0	16477	1.373	0.001792394796
0	16526	1.377	8.9608681e-05
0	16576	1.381	0.00151659243
0	16790	1.4	0.000662860194
0	16994	1.417	0.001305546368
0	17013	1.419	0.000522501162
0	17095	1.426	0.000930675944
0	17154	1.431	0.00276831204
0	17204	1.435	6.582095e-05
0	17228	1.437	0.000152610791
0	17256	1.439	9.277343e-05
0	17273	1.44	0.001088919771
0	17277	1.44	0.000149381784
0	17316	1.443	0.001760197232
0	17317	1.443	0.001445018006
0	17332	1.444	0.00275086328
0	17391	1.449	6.4082946e-05
0	17415	1.451	0.000389992794
0	17482	1.456	0.000462447053
0	17520	1.459	0.000218212647
0	17537	1.46	0.001461012717
0	17591	1.465	0.0008540542
0	17624	1.467	0.000598309738
0	17656	1.47	0.004950102284
0	17671	1.471	0.004005565723
0	17681	1.472	0.001051314136
0	17722	1.475	0.000139830212
0	17772	1.479	0.002383992066
0	17821	1.483	0.000271029087
0	17844	1.485	0.000895035087
0	17860	1.486	4.8873886e-05
0	17889	1.488	0.000313085461
0	17915	1.49	0.000163528301
0	17918	1.49	0.000483105854
0	17996	1.497	0.000355559816
0	18057	1.502	0.001743894734
0	18093	1.505	0.001497940772
0	18286	1.522	0.000813323131
0	18298	1.523	0.000780309882
0	18429	1.534	0.000738204254
0	18509	1.541	5.9352121e-05
0	18564	1.545	0.000747685299
0	18575	1.546	0.001990934646
0	18577	1.546	0.001371968644
0	18589	1.547	0.000110162496
0	18627	1.55	0.000803604827
0	18700	1.556	0.000963090326
0	18777	1.562	0.000948981622
0	18780	1.562	0.001066500561
0	18783	1.562	0.001628471162
0	18818	1.565	0.001682561681
0	18961	1.578	0.001779017649
0	18975	1.579	0.000731532985
0	18978	1.579	0.002515866903
0	19061	1.586	0.000204598649
0	19161	1.595	0.000404295939
0	19341	1.611	0.001217375643
0	19393	1.615	0.00099799858
0	19453	1.62	0.00058223927
0	19545	1.628	0.00044455772
0	19605	1.633	0.000782447071
0	19652	1.637	0.000999383883
0	19701	1.641	0.001592802461
0	19728	1.643	0.001046553821
0	19854	1.654	0.004523281571
0	19929	1.66	0.001506301266
0	19981	1.665	0.000219276598
0	20058	1.671	0.000703012897
0	20077	1.672	0.002679408778
0	20078	1.672	0.000768117101
0	20090	1.673	0.001910241038
0	20125	1.676	0.000328003966
0	20179	1.68	0.001979579428
0	20182	1.68	0.002802913028
0	20183	1.68	0.002438634068
0	20243	1.685	0.001081315805
0	20312	1.691	0.000252546062
0	20433	1.701	0.000144211178
0	20462	1.703	0.000782007831
0	20465	1.703	0.001292115127
0	20503	1.706	0.000621644329
0	20543	1.709	0.001637702747
0	20650	1.718	0.001270967397
0	20662	1.719	0.002311542148
0	20687	1.721	0.000385446048
0	20739	1.725	0.000488999551
0	20743	1.725	0.001094862593
0	20787	1.728	0.000721514458
0	20789	1.728	0.000508345925
0	20814	1.73	0.002065984543
0	20815	1.73	0.002042420699
0	20869	1.734	0.002570745496
0	20962	1.742	0.001452271456
0	21067	1.751	0.003985871797
0	21090	1.753	0.000867650588
0	21166	1.759	0.003094168079
0	21193	1.761	0.000936726816
0	21220	1.763	0.000431103611
0	21362	1.775	0.001703339098
0	21400	1.778	0.000791767613
0	21457	1.783	0.000717568445
0	21526	1.788	0.001358492679
0	21538	1.789	0.003713417129
0	21580	1.793	0.006811214374
0	21642	1.798	0.003963024597
0	21667	1.8	0.002461645074
0	21736	1.806	0.00117931834
0	21768	1.808	0.001429676868
0	21769	1.808	0.001236425722
0	21829	1.813	0.000672084095
0	21856	1.815	0.000523683803
0	21869	1.816	0.001384676384
0	21918	1.82	0.003720703172
0	21935	1.821	0.002406731001
0	22077	1.834	0.000141985557
0	22302	1.853	0.001534230998
0	22303	1.853	7.39748e-06
0	22331	1.855	0.000268414174
0	22335	1.855	0.000225741687
0	22352	1.856	2.758151e-06
0	22368	1.857	0.000358497027
0	22420	1.861	0.001236718761
0	22694	1.885	0.000318200999
0	22785	1.893	0.002152909159
0	22786	1.893	0.001796062381
0	22857	1.899	0.001145398887
0	22860	1.899	0.002216835737
0	22947	1.907	0.001743967168
0	23028	1.914	0.001205131861
0	23055	1.916	0.001741932201
0	23153	1.924	0.001799681689
0	23356	1.942	0.001229311847
0	23395	1.945	0.002045209994
0	23419	1.947	0.000779589423
0	23479	1.952	0.001750807597
0	23520	1.955	0.001974145286
0	23536	1.956	0.000511720609
0	23537	1.956	8.467041e-05
0	23599	1.961	0.00057978727
0	23680	1.968	0.001156475122
0	23894	1.987	7.6504158e-05
0	23911	1.988	6.325159e-06
0	23938	1.99	0.001602624212
0	23941	1.99	0.000956461862
0	23997	1.995	0.000603697479
0	24029	1.998	0.000806897296
0	24234	2.016	0.000335830583
0	24298	2.021	0.002457308142
0	24358	2.026	0.00180811564
0	24388	2.028	0.000725638343
0	24404	2.029	0.001198916593
0	24416	2.03	0.001529807725
0	24453	2.033	0.000369734679
0	24552	2.041	0.002218515324
0	24565	2.042	5.87487e-06
0	24591	2.044	0.001062242544
0	24608	2.045	0.000155429124
0	24694	2.053	0.000800797848
0	24697	2.053	0.002676687254
0	24770	2.059	0.000801957625
0	24774	2.059	0.001820023746
0	24822	2.063	0.001984398679
0	24833	2.064	0.001031062911
0	24859	2.066	0.000240110686
0	24890	2.068	0.000571074605
0	24916	2.07	0.000268454439
0	24920	2.07	0.001795367092
0	24922	2.07	0.002698234275
0	24987	2.076	0.00053757825
0	25039	2.08	0.000157409217
0	25133	2.088	0.000571371858
0	25204	2.094	7.0315373e-05
0	25241	2.097	0.000164020651
0	25244	2.097	0.002202862447
0	25339	2.105	0.000613975915
0	25353	2.106	2.7579876e-05
0	25371	2.107	0.000275479005
0	25505	2.118	0.000268468753
0	25529	2.12	0.00066527348
0	25597	2.126	0.000960686952
0	25639	2.129	0.000123417351
0	25677	2.132	0.000579582043
0	25736	2.137	0.001662801654
0	25760	2.139	0.000598857733
0	25775	2.14	9.5723145e-05
0	25793	2.141	0.000359292018
0	25878	2.148	5.9546321e-05
0	25916	2.151	0.003052453421
0	25966	2.155	0.000108192299
0	26022	2.16	0.000274327602
0	26070	2.164	0.001030056015
0	26099	2.166	0.001945302238
0	26148	2.17	0.000127961595
0	26174	2.172	0.003699374954
0	26208	2.175	0.001673697329
0	26249	2.178	0.001113545764
0	26266	2.179	0.003938550262
0	26279	2.18	0.001582862384
0	26335	2.185	0.000973926042
0	26373	2.188	0.000980457633
0	26630	2.21	0.001359668276
0	26643	2.211	0.000950299565
0	26646	2.211	0.001551800065
0	26705	2.216	0.001053282823
0	26733	2.218	0.00068211137
0	26760	2.22	0.000911704745
0	26774	2.221	0.001355829657
0	26879	2.23	0.003863040201
0	26962	2.237	6.3376315e-05
0	26984	2.239	0.003231579948
0	27068	2.246	0.000316840144
0	27105	2.249	0.000119553996
0	27167	2.254	5.60896e-05
0	27360	2.271	0.001795880654
0	27466	2.28	0.000901594034
0	27469	2.28	0.003613386513
0	27508	2.283	0.001945533595
0	27536	2.285	0.000250368761
0	27636	2.293	0.001366445759
0	27693	2.298	0.002580246991
0	27803	2.308	0.003172049108
0	27884	2.315	0.001146780258
0	28081	2.332	0.002194747116
0	28095	2.333	0.002765170534
0	28116	2.335	0.004298046331
0	28131	2.336	5.4549508e-05
0	28214	2.343	0.001118877087
0	28388	2.358	0.002425862893
0	28389	2.358	0.001870141151
0	28428	2.361	0.002100227452
0	28473	2.365	0.000744001161
0	28685	2.384	0.000596973445
0	28745	2.389	0.000743063303
0	28762	2.39	0.000118605309
0	28774	2.391	0.001525804472
0	28791	2.392	0.000739148728
0	28818	2.394	0.000630586708
0	28893	2.4	5.7719076e-05
0	28921	2.402	0.000573127404
0	28966	2.406	0.000231430558
0	29018	2.41	0.000834772138
0	29042	2.412	0.000182327862
0	29214	2.427	0.002269726817
0	29264	2.431	0.002906909696
0	29303	2.434	0.000855338065
0	29305	2.434	0.001058429632
0	29351	2.438	0.002191909579
0	29379	2.44	0.001055190354
0	29442	2.446	0.000165362547
0	29571	2.457	0.000779682088
0	29602	2.459	0.000127356124
0	29616	2.46	0.000903642457
0	29699	2.467	0.001965294271
0	29762	2.472	0.000551458862
0	29900	2.484	0.002908931662
0	29903	2.484	0.001865144923
0	29995	2.492	0.000512126307
0	30056	2.497	0.003889243125
0	30106	2.501	0.003689667772
0	30152	2.505	0.000338392065
0	30157	2.505	0.000290177947
0	30184	2.507	0.001784973815
0	30317	2.518	0.002090719783
0	30376	2.523	0.00275626635
0	30415	2.526	0.001339618909
0	30460	2.53	0.002056907141
0	30473	2.531	0.000934089718
0	30532	2.536	0.000502625657
0	30569	2.539	0.001370288802
0	30670	2.548	0.000428854047
0	30713	2.551	0.001710769728
0	30714	2.551	0.001415358939
0	30731	2.552	0.000402339518
0	30805	2.558	0.003469626773
0	30827	2.56	0.000824730759
0	30998	2.575	0.000447493757
0	31063	2.58	0.00266765044
0	31155	2.588	3.0559201e-05
0	31159	2.588	0.001816557598
0	31184	2.59	0.000472427045
0	31303	2.6	0.002276582409
0	31496	2.617	0.00331818866
0	31535	2.62	0.001147069536
0	31611	2.627	0.00223608516
0	31612	2.627	0.001164311807
0	31629	2.628	0.000493372571
0	31691	2.633	1.281309e-05
0	31718	2.635	0.002046202854
0	31729	2.636	0.001441040816
0	31755	2.638	0.000124260144
0	31793	2.641	0.00139767464
0	31849	2.646	0.000983652093
0	31880	2.648	0.000497929465
0	31938	2.653	0.001556364942
0	32103	2.667	0.000602343864
0	32141	2.67	0.000237541023
0	32145	2.67	0.003812579273
0	32208	2.675	0.002078234854
0	32219	2.676	0.000466778901
0	32245	2.678	0.000925209194
0	32350	2.687	0.000630373731
0	32366	2.688	0.000775379071
0	32416	2.692	0.000491544296
0	32545	2.703	0.000187688019
0	32655	2.712	0.000896424308
0	32667	2.713	0.000207808013
0	32717	2.717	0.001388877817
0	32807	2.725	0.001597514768
0	32845	2.728	7.9335169e-05
0	32916	2.734	0.0005479996
0	32954	2.737	0.000904675173
0	33047	2.745	0.001645686532
0	33190	2.758	0.001165858587
0	33337	2.771	0.001549845262
0	33416	2.778	0.000706113012
0	33536	2.788	0.000447369134
0	33548	2.789	0.000440180215
0	33680	2.8	0.000330355122
0	33696	2.801	0.000786555899
0	33747	2.805	0.001170740965
0	33842	2.813	2.890591e-05
0	33947	2.822	0.00071965458
0	34011	2.827	0.001818990016
0	34045	2.83	0.000134506147
0	34062	2.831	0.000498735309
0	34247	2.848	0.001111833812
0	34285	2.851	0.000708640015
0	34321	2.854	0.00059122045
0	34413	2.862	0.000164947457
0	34490	2.868	0.001873665054
0	34526	2.871	1.6646653e-05
0	34565	2.874	0.00173243888
0	34581	2.875	0.000731738454
0	34669	2.883	0.001581850187
0	34698	2.885	0.001420359581
0	34898	2.903	0.00015193455
0	34973	2.909	0.001440256388
0	35115	2.921	0.001967229172
0	35149	2.924	0.000909820823
0	35287	2.936	0.001362159008
0	35316	2.938	0.000819382264
0	35320	2.938	0.000641491328
0	35352	2.941	0.003605372287
0	35379	2.943	0.001450926112
0	35427	2.947	0.000836160938
0	35532	2.956	0.001275862009
0	35590	2.961	0.000762894389
0	35605	2.962	4.1315547e-05
0	35616	2.963	0.000670271494
0	35636	2.964	0.000792275603
0	35715	2.971	0.000552220523
0	35766	2.975	0.000704972462
0	35772	2.975	0.001450477434
0	35852	2.982	0.001376914826
0	35889	2.985	0.000101259414
0	35938	2.989	0.000611108542
0	36092	3.002	5.3426552e-05
0	36186	3.01	0.000925617994
0	36214	3.012	0.000823960644
0	36248	3.014	0.000246119106
0	36250	3.014	0.002260326478
0	36261	3.015	0.001574509999
0	36300	3.018	0.001586090741
0	36349	3.022	0.001918782304
0	36453	3.031	0.000697121543
0	36458	3.031	0.00078632883
0	36510	3.036	0.001294464582
0	36525	3.037	0.000862842631
0	36589	3.042	0.00279447645
0	36648	3.047	0.003891807436
0	36769	3.058	0.000524020016
0	36859	3.066	0.00023099785
0	36921	3.071	0.000135968571
0	36952	3.073	0.000442945672
0	37011	3.078	0.000174571596
0	37138	3.089	0.001646386107
0	37142	3.089	7.187014e-06
0	37224	3.096	0.001093057481
0	37299	3.102	0.003737640665
0	37310	3.103	0.000549839984
0	37348	3.106	0.002819093391
0	37433	3.113	0.000553132519
0	37463	3.115	0.002163377647
0	37464	3.115	0.001925769943
0	37478	3.116	0.000198844444
0	37504	3.118	0.001476875983
0	37521	3.119	0.00012155595
0	37570	3.123	0.000397987054
0	37603	3.125	0.000481588538
0	37614	3.126	0.001730993782
0	37685	3.132	0.000522523869
0	37713	3.134	0.002356579306
0	37794	3.141	0.000185738509
0	37845	3.145	0.000711674733
0	37848	3.145	0.001841738573
0	37860	3.146	0.002208395531
0	37901	3.149	0.000226116852
0	37979	3.156	0.000568851235
0	38041	3.161	0.001188329276
0	38095	3.165	0.001406336555
0	38142	3.169	0.005368062435
0	38176	3.172	0.000755080828
0	38259	3.179	0.000777541118
0	38329	3.185	1.7786664e-05
0	38442	3.194	0.000589988637
0	38479	3.197	0.000914048492
0	38507	3.199	0.001832453482
0	38543	3.202	0.004076276408
0	38578	3.205	7.45466e-06
0	38607	3.207	0.00484470899
0	38627	3.209	0.002742354743
0	38756	3.22	8.5199444e-05
0	38758	3.22	0.00060488224
0	38796	3.223	0.003798677759
0	38821	3.225	0.001926420613
0	39015	3.242	0.001630576954
0	39053	3.245	0.002412216842
0	39054	3.245	0.00124162104
0	39093	3.248	0.002548054803
0	39367	3.272	0.000761346858
0	39452	3.279	0.002182884365
0	39465	3.28	0.000461740926
0	39619	3.293	0.000176176994
0	39729	3.302	0.000648163313
0	39840	3.311	0.002478682858
0	39854	3.312	0.000794423208
0	39870	3.313	0.000456712576
0	40037	3.328	0.000300636044
0	40054	3.329	0.001988426659
0	40068	3.33	0.003186413961
0	40087	3.332	0.003878751463
0	40128	3.335	0.001928116975
0	40130	3.335	0.001937003929
0	40154	3.337	0.00252945602
0	40179	3.339	0.000590764767
0	40219	3.342	0.000195015363
0	40316	3.35	0.000179790578
0	40319	3.35	0.00047501225
0	40358	3.353	0.002695862071
0	40480	3.364	0.002334726622
0	40505	3.366	0.000712807929
0	40553	3.37	0.000349554002
0	40612	3.375	0.000655248103
0	40615	3.375	0.000187465441
0	40695	3.382	0.000897202606
0	40733	3.385	0.000846132506
0	40780	3.389	0.000227702397
0	40842	3.394	0.001981972627
0	40886	3.398	0.000579770468
0	41069	3.414	0.002598682291
0	41093	3.416	0.000986263113
0	41107	3.417	0.000188554611
0	41149	3.42	0.000894041167
0	41177	3.422	0.001729547998
0	41221	3.426	0.00212384212
0	41285	3.431	1.7318147e-05
0	41299	3.432	0.001054341508
0	41436	3.444	0.003172584393
0	41448	3.445	0.001585362449
0	41460	3.446	0.000140289206
0	41585	3.457	0.000135121403
0	41628	3.46	0.000101960333
0	41642	3.461	0.002500239465
0	41644	3.461	0.002519194357
0	41713	3.467	0.002011493916
0	41760	3.471	6.970497e-06
0	41844	3.478	0.000920176513
0	41885	3.481	0.000956984201
0	41887	3.481	0.003653702522
0	41911	3.483	0.001765956371
0	41923	3.484	0.003598241992
0	41939	3.485	0.000807730695
0	41997	3.49	0.000239020345
0	42036	3.493	0.000438353832
0	42050	3.494	0.002716864275
0	42085	3.497	0.000557468324
0	42151	3.502	0.000771693861
0	42153	3.502	0.001684347856
0	42223	3.508	0.001443264587
0	42225	3.508	0.002214843735
0	42275	3.512	0.000938159224
0	42317	3.515	0.000158478628
0	42334	3.516	0.000266302903
0	42360	3.518	0.002971683065
0	42374	3.519	0.001206039119
0	42408	3.522	0.001012206783
0	42427	3.523	0.000618021929
0	42431	3.523	0.000291379966
0	42443	3.524	0.001287088817
0	42469	3.526	0.001058144887
0	42486	3.527	0.000985064664
0	42517	3.53	0.000829382027
0	42540	3.531	0.000932956325
0	42556	3.532	0.001958252522
0	42566	3.533	0.000824342903
0	42596	3.535	0.004446264635
0	42631	3.538	0.000344467788
0	42746	3.548	0.000717928165
0	42950	3.565	0.002826981767
0	43067	3.575	0.000861427098
0	43070	3.575	0.001645148493
0	43143	3.581	0.000720576437
0	43145	3.581	0.000821698668
0	43217	3.587	0.001084935211
0	43265	3.591	0.000373682946
0	43351	3.598	8.1758628e-05
0	43353	3.598	0.000636203407
0	43399	3.602	0.000248360555
0	43412	3.603	9.7591158e-05
0	43418	3.603	0.005605907283
0	43486	3.609	0.000756935287
0	43527	3.612	0.000340503071
0	43555	3.614	0.001360597901
0	43655	3.623	0.000627569143
0	43697	3.626	0.001591986536
0	43752	3.631	0.000653077321
0	43823	3.637	8.0506992e-05
0	43885	3.642	0.00098649662
0	43987	3.651	5.0696086e-05
0	44015	3.653	0.00116038658
0	44051	3.656	0.001107482701
0	44135	3.663	0.000767477467
0	44180	3.667	0.000957307254
0	44219	3.67	0.001582087954
0	44300	3.677	0.001250302647
0	44303	3.677	0.000615480107
0	44532	3.697	0.002731882116
0	44587	3.702	0.007432986001
0	44622	3.705	0.001413779468
0	44711	3.712	0.002371224176
0	44726	3.713	0.000952971948
0	44740	3.714	0.003141987756
0	44778	3.717	0.001767689098
0	44780	3.717	0.000672090505
0	44782	3.717	0.005124096509
0	44808	3.719	0.000344924156
0	44893	3.726	0.001818833388
0	44949	3.731	0.000313098759
0	44966	3.732	0.001426545312
0	44988	3.734	0.002986120384
0	45048	3.739	0.001395441668
0	45165	3.749	0.001105799502
0	45213	3.753	0.002697190541
0	45248	3.756	0.00041189565
0	45314	3.761	0.000856751731
0	45338	3.763	0.000974160756
0	45410	3.769	0.001380575247
0	45425	3.77	0.000882159883
0	45436	3.771	0.000776243907
0	45489	3.775	0.001070020167
0	45527	3.778	0.001151950974
0	45643	3.788	4.9262571e-05
0	45670	3.79	0.001743127152
0	45734	3.795	0.001846966946
0	45772	3.798	0.003323263912
0	45786	3.799	0.003632939904
0	45937	3.812	0.000959335833
0	45956	3.813	0.002905689612
0	45970	3.814	0.000700218354
0	45972	3.814	0.001899482717
0	46018	3.818	0.006859694701
0	46057	3.821	0.003259825315
0	46068	3.822	0.001422167414
0	46138	3.828	4.4897594e-05
0	46200	3.833	5.1026482e-05
0	46409	3.851	0.000999705951
0	46414	3.851	0.001829327128
0	46428	3.852	0.000884645428
0	46486	3.857	0.000939260702
0	46597	3.867	5.7477191e-05
0	46624	3.869	0.00113512832
0	46689	3.874	0.00258397493
0	46715	3.876	0.000648259032
0	46783	3.882	0.001834116633
0	46818	3.885	9.3978697e-05
0	46937	3.895	0.000909972249
0	46940	3.895	0.003411984683
0	46968	3.897	0.001369885351
0	47099	3.908	0.001258512292
0	47112	3.909	0.001690260272
0	47169	3.914	0.000261662132
0	47229	3.919	0.000824031485
0	47345	3.929	9.2771391e-05
0	47348	3.929	0.00097017852
0	47476	3.94	0.000337228779
0	47515	3.943	0.001936220444
0	47541	3.945	0.002529284772
0	47569	3.947	0.001764864558
0	47581	3.948	0.001253597402
0	47725	3.96	0.000827501013
0	47727	3.96	0.000183030229
0	47786	3.965	0.000915728457
0	47833	3.969	0.000528308547
0	47847	3.97	0.00187610272
0	47974	3.981	0.001930360745
0	48004	3.983	0.001243067783
0	48016	3.984	0.001495104072
0	48116	3.993	0.000491163421
0	48144	3.995	0.001612495268
0	48185	3.998	0.000190395953
0	48187	3.998	0.000499205925
0	48314	4.009	0.000600220076
0	48405	4.016	0.001292023339
0	48434	4.018	0.000505335397
0	48446	4.019	0.000329718009
0	48461	4.02	0.002796284653
0	48473	4.021	0.000513767673
0	48513	4.024	6.4041932e-05
0	48538	4.026	0.001365412751
0	48565	4.028	0.000306329532
0	48684	4.038	0.0034332025
0	48685	4.038	0.000415765629
0	48702	4.039	0.000701228283
0	48762	4.044	0.000937508189
0	48836	4.05	0.000753278004
0	48895	4.055	0.000160912447
0	48912	4.056	0.000930296051
0	48951	4.059	0.001053351618
0	48977	4.061	0.002861682513
0	48987	4.062	0.002647825492
0	49057	4.068	0.001248985658
0	49186	4.079	0.000187634303
0	49214	4.081	0.000235454584
0	49242	4.083	0.002570782784
0	49319	4.089	0.000842910159
0	49321	4.089	0.001212500994
0	49376	4.094	0.000773501564
0	49526	4.107	0.000399291481
0	49589	4.112	0.001676324976
0	49601	4.113	0.001403826028
0	49705	4.123	0.000563962173
0	49743	4.126	0.000375732394
0	49861	4.136	5.647222e-06
0	49932	4.142	4.585938e-05
0	49950	4.143	0.000776909042
0	49979	4.145	0.001628384583
0	50072	4.153	0.00304417641
0	50088	4.154	6.4662636e-05
0	50125	4.157	0.001934640134
0	50199	4.163	0.000216092554
0	50202	4.163	0.000287559508
0	50276	4.169	0.000669474644
0	50280	4.169	0.001633841463
0	50330	4.173	0.003876498176
0	50364	4.176	0.00096883628
0	50416	4.18	0.001866973865
0	50444	4.182	0.002087108156
0	50608	4.196	0.003532423638
0	50644	4.199	0.001025064195
0	50906	4.222	0.001444784134
0	50992	4.229	0.000925978217
0	51018	4.231	0.001760016416
0	51151	4.243	0.000386106699
0	51164	4.244	0.000167697506
0	51257	4.252	0.00225622301
0	51272	4.253	0.000775054981
0	51288	4.254	0.001689592255
0	51323	4.257	0.001837185427
0	51360	4.26	9.8000462e-05
0	51488	4.271	0.000861157211
0	51505	4.272	0.000569163838
0	51519	4.273	0.000351564945
0	51714	4.29	9.9364586e-05
0	51774	4.295	0.000103892319
0	51820	4.299	7.2225046e-05
0	51881	4.304	0.002758585975
0	51882	4.304	0.001770845139
0	51930	4.308	0.000597536079
0	51996	4.313	0.000620118351
0	52082	4.32	0.002607427305
0	52083	4.32	0.001234714342
0	52168	4.327	0.001758350766
0	52294	4.338	0.003325527224
0	52306	4.339	0.003883111163
0	52319	4.34	0.000770904041
0	52407	4.347	0.002670170644
0	52418	4.348	0.001181573816
0	52454	4.351	0.000860427032
0	52506	4.355	0.001806265957
0	52601	4.363	0.000896300649
0	52628	4.365	0.003974923131
0	52629	4.365	0.003308128409
0	52644	4.366	0.002119092023
0	52657	4.367	0.001145640424
0	52680	4.369	0.002754786408
0	52725	4.373	0.000989949956
0	52763	4.376	0.000972622456
0	52793	4.378	0.000265319465
0	52824	4.38	0.001103397665
0	52846	4.382	0.000597146045
0	52851	4.382	0.00306468944
0	52960	4.392	0.00017693848
0	52988	4.394	0.000741424013
0	53135	4.407	0.001045570044
0	53171	4.41	1.6884052e-05
1	35	0.001	0.001
1	37	0.001	0.001
1	462	0.038	0.000101214068
1	525	0.043	0.000211410072
1	629	0.051	2.6800088e-05
1	812	0.066	0.000330005817
1	1059	0.088	0.00037561881
1	1444	0.12	0.000892368582
1	1771	0.148	0.000469868327
1	1832	0.153	0.000306781056
1	1953	0.162	0.000943320025
1	2408	0.201	0.000508299183
1	2942	0.246	0.000391473505
1	3550	0.297	0.000165129441
1	3627	0.303	0.000303702016
1	3852	0.322	0.00080106096
1	3928	0.328	0.000229025989
1	4029	0.336	0.000797277987
1	4156	0.346	0.0008062505
1	4349	0.361	9.3574927e-05
1	4393	0.365	0.000773341094
1	4454	0.37	0.000542997612
1	4691	0.389	0.000782692865
1	4693	0.389	0.000338130949
1	4782	0.396	0.000792387593
1	4967	0.412	0.000247621564
1	5116	0.425	0.000197162667
1	5747	0.476	0.000707077656