version 3
run Load30-0-20241209-00:15:28-9432
attr configname Load30
attr datetime 20241209-00:15:28
attr datetimef 20241209-001528
attr experiment Load30
attr inifile omnetpp.ini
attr iterationvars ""
attr iterationvarsd ""
attr iterationvarsf ""
attr measurement ""
attr network RadioSch2
attr processid 9432
attr repetition 0
attr replication #0
attr resultdir results
attr runnumber 0
attr seedset 0
config description "low job arrival rate"
config *.usersCount 10
config *.scheduler.nrOfChannels 30
config *.scheduler.schedulingPeriod 1ms
config **.user[*].generator.netwload 0.3
config **.user[*].generator.nrUsers 10
config **.user[*].generator.nrOfChannels 30
config **.user[*].generator.nrPackets 100
config network RadioSch2
config sim-time-limit 100s
config cpu-time-limit 300s

vector 0 RadioSch2.sink lifetime:vector ETV
attr recordingmode vector
attr title "Packet Lifetime"
attr unit s
vector 1 RadioSch2.sink hpLifetime:vector ETV
attr recordingmode vector
attr title "HP Packet Lifetime"
attr unit s
vector 2 RadioSch2.sink mpLifetime:vector ETV
attr recordingmode vector
attr title "MP Packet Lifetime"
attr unit s
vector 3 RadioSch2.sink lpLifetime:vector ETV
attr recordingmode vector
attr title "LP Packet Lifetime"
attr unit s
0	35	0.001	0.001
0	37	0.001	0.001
0	39	0.001	0.001
0	49	0.002	0.002
0	51	0.002	0.002
0	53	0.002	0.002
0	62	0.003	0.003
0	64	0.003	0.003
0	88	0.005	0.005
0	90	0.005	0.005
0	759	0.065	0.00377239037
0	961	0.082	0.002282946267
0	1027	0.088	0.000533206669
0	1039	0.089	0.000569499493
0	1168	0.1	0.000159956835
0	1206	0.103	0.000419652059
0	1291	0.11	0.001443730401
0	1626	0.14	0.000452137995
0	1821	0.157	0.000947472102
0	1975	0.171	2.874053e-05
0	2050	0.177	0.001366780908
0	2112	0.182	1.9126958e-05
0	2386	0.207	0.000377309769
0	2411	0.209	0.000230790928
0	2428	0.21	0.0012262162
0	2493	0.216	0.00020166565
0	2508	0.217	0.000161629346
0	2847	0.247	0.000334093405
0	3118	0.271	0.000383339556
0	3220	0.281	0.00042565393
0	3401	0.296	0.00368079853
0	3540	0.308	0.001161409014
0	3552	0.309	0.00194245665
0	3569	0.31	2.9739627e-05
0	3650	0.317	0.001049470938
0	3700	0.321	0.002653356966
0	3837	0.333	0.00133599016
0	3848	0.334	0.000860384023
0	3901	0.338	0.000291761131
0	3905	0.338	0.001501869579
0	3959	0.343	0.000949467175
0	4199	0.365	0.00154935088
0	4593	0.401	0.000644567301
0	4615	0.403	0.000797569845
0	4633	0.404	0.00078933536
0	5045	0.441	0.002871868495
0	5061	0.442	0.00056340438
0	5241	0.458	0.000490717996
0	5294	0.462	0.00102200578
0	5307	0.463	0.000552409891
0	5313	0.463	0.002179365402
0	5363	0.467	0.000137797687
0	5373	0.468	0.00179070607
0	5468	0.476	0.001889481171
0	5537	0.482	0.001732226017
0	5551	0.483	0.000384727819
0	5705	0.497	0.001900740923
0	5801	0.505	0.001323777995
0	5819	0.506	0.000871634474
0	5912	0.514	0.000115817971
0	6377	0.556	0.001715023522
0	6943	0.606	0.000724019017
0	7004	0.611	0.00152429762
0	7499	0.655	0.000898490398
0	7516	0.656	0.000188514199
0	7642	0.667	0.003051091514
0	8018	0.701	0.002670737445
0	8053	0.704	0.000284936322
0	8189	0.716	0.001015347042
0	8369	0.732	6.2253903e-05
0	8439	0.738	0.000289526706
0	8553	0.748	0.00117012621
0	8789	0.769	0.00075508995
0	9031	0.79	0.000363753218
0	9057	0.792	0.001911288338
0	9194	0.804	0.002081405643
0	9386	0.821	0.00270770964
0	9429	0.825	0.000385797944
0	9542	0.834	4.4137397e-05
0	9544	0.834	0.000903010333
0	9671	0.845	0.002049807883
0	9756	0.852	0.000761634666
0	9768	0.853	0.002094375045
0	9871	0.862	0.000801775983
0	10048	0.878	0.002978613105
0	10245	0.895	0.000274466126
0	10259	0.896	0.000517635527
0	10261	0.896	0.003439415683
0	10341	0.903	0.000199935277
0	10396	0.907	0.001665888181
0	10464	0.913	0.0012183012
0	10466	0.913	0.00228055113
0	10741	0.938	0.000945692837
0	10771	0.94	0.001334887538
0	10856	0.947	0.000363164301
0	10925	0.953	0.001622826036
0	10966	0.956	0.000832571857
0	11203	0.976	0.000606343933
0	11245	0.979	0.001459422765
0	11268	0.981	0.002941078015
0	11292	0.983	0.000209231343
0	11316	0.985	0.000736149726
0	11605	1.01	0.002674320492
0	11631	1.012	0.000805835295
0	11668	1.015	0.000104723013
0	11720	1.019	0.001876736413
0	11778	1.024	0.003113148632
0	11927	1.037	0.003008542369
0	11940	1.038	0.001503798394
0	12001	1.043	0.001177879193
0	12034	1.046	0.0038111556
0	12072	1.049	0.000210055058
0	12109	1.052	0.001380133711
0	12126	1.053	0.000238968544
0	12181	1.058	0.000449725746
0	12328	1.07	0.000413482643
0	12377	1.074	0.00072670236
0	12409	1.077	0.002268142017
0	12563	1.09	0.000240528364
0	12743	1.106	0.000805168566
0	12939	1.123	0.000992233902
0	12942	1.123	0.000566495362
0	13144	1.141	0.001592152311
0	13172	1.143	0.000743892734
0	13323	1.156	0.002577819478
0	13360	1.159	0.001779019211
0	13364	1.159	0.001897294033
0	13388	1.161	0.000352452499
0	13525	1.173	0.001259271858
0	13645	1.184	0.003982001015
0	13727	1.191	0.001407321527
0	13790	1.196	0.00074074855
0	13872	1.203	0.003838431909
0	14038	1.218	0.000840446196
0	14104	1.223	0.001937064714
0	14121	1.224	0.000161114047
0	14167	1.228	0.000638299674
0	14296	1.239	0.000746032906
0	14573	1.264	0.000422406645
0	15159	1.315	0.001222512792
0	15685	1.361	0.000924684546
0	15697	1.362	0.000766864998
0	16015	1.39	0.000764941053
0	16247	1.41	1.0054907e-05
0	16569	1.439	0.001532565268
0	16619	1.443	0.000738248034
0	16744	1.454	0.001535855977
0	17246	1.499	0.000862982345
0	17284	1.502	0.002286289851
0	17357	1.508	0.004762188678
0	17358	1.508	0.004027300279
0	17429	1.514	7.9083444e-05
0	17446	1.515	0.000813710187
0	17699	1.537	0.001457543191
0	17858	1.551	0.00215256971
0	18150	1.577	0.000968661265
0	18304	1.59	0.002812821624
0	18375	1.596	0.0005328927
0	18564	1.612	0.000355881275
0	18612	1.616	0.001326875037
0	18659	1.62	0.000449180057
0	18754	1.628	0.000855208329
0	18775	1.63	0.002888663623
0	18875	1.639	0.000919483966
0	18948	1.645	0.002178360282
0	19164	1.665	0.000585816336
0	19496	1.694	0.000428080975
0	19543	1.698	0.000589556031
0	19568	1.7	0.001318126573
0	19628	1.705	0.003697551153
0	19798	1.72	0.000259306878
0	19822	1.722	0.001694801375
0	19994	1.737	0.000478515646
0	20212	1.756	0.001902565057
0	20400	1.772	4.3608942e-05
0	20792	1.807	0.002300468815
0	20804	1.808	2.5606715e-05
0	20831	1.81	6.5528105e-05
0	20939	1.819	0.001082168744
0	21147	1.837	0.001561599479
0	21171	1.839	0.0003251188
0	21216	1.843	0.00351827033
0	21473	1.865	0.001266905429
0	21565	1.873	0.000983938125
0	22148	1.924	0.000354637448
0	22181	1.927	0.00084648978
0	22508	1.956	0.00029192507
0	22717	1.974	0.002154390508
0	22799	1.982	0.000285705751
0	23026	2.002	0.000723093682
0	23065	2.005	5.8301334e-05
0	23449	2.039	5.5177158e-05
0	23985	2.086	0.001624464726
0	24117	2.097	0.001650482074
0	24198	2.104	0.000228528125
0	24216	2.105	0.000527924808
0	24271	2.11	0.001629981688
0	24537	2.134	0.001396395427
0	24628	2.142	0.002114595711
0	24966	2.172	0.001027121292
0	25080	2.182	0.001670493153
0	25151	2.188	0.002385413344
0	25634	2.231	0.001953852676
0	25696	2.236	0.000351210783
0	25816	2.247	0.001154725098
0	25986	2.262	0.000974812364
0	26172	2.278	0.001885574814
0	26369	2.296	0.00259474221
0	26450	2.303	0.002431825225
0	26555	2.312	0.002472371592
0	26691	2.324	0.000910737574
0	26726	2.327	0.001738008435
0	26746	2.329	0.000701466931
0	26792	2.332	0.001593104104
0	26802	2.333	0.001001604698
0	26919	2.343	0.000840437483
0	26977	2.348	0.00191048049
0	27219	2.369	0.00235727745
0	27396	2.385	0.002986260339
0	27819	2.422	0.002796100673
0	27890	2.429	0.000580696014
0	27929	2.432	0.000318339859
0	28193	2.455	3.2434632e-05
0	28316	2.466	0.001634150062
0	28876	2.517	4.7314261e-05
0	29076	2.534	0.001650604049
0	29173	2.542	0.002082086815
0	29484	2.57	0.001841473311
0	29542	2.575	0.000407031363
0	29598	2.58	0.000127374541
0	29726	2.591	0.003399062813
0	29737	2.592	0.000204956418
0	29832	2.6	0.000743263973
0	29878	2.604	0.000909760968
0	29926	2.608	0.00019154734
0	29941	2.609	0.000223378202
0	29943	2.609	0.00033535503
0	29946	2.609	0.004874305099
0	30152	2.627	0.003642873251
0	30239	2.634	0.001514069553
0	30251	2.635	0.001101319084
0	30265	2.636	0.002635039334
0	30341	2.642	0.000429629707
0	30361	2.644	0.000607140181
0	30453	2.651	0.001288750937
0	30465	2.652	0.001276391877
0	30572	2.662	0.000919497998
0	30603	2.664	0.0004614155
0	30643	2.668	0.000681772062
0	30803	2.682	0.003554525591
0	30901	2.69	0.000100116075
0	30932	2.693	0.00290731406
0	31062	2.704	0.001319975357
0	31074	2.705	0.000427515484
0	31181	2.714	0.002019328101
0	31507	2.742	0.000222389913
0	31540	2.745	0.000986677975
0	31666	2.756	0.000291879213
0	31721	2.76	0.000672466904
0	31936	2.779	0.00142992384
0	32229	2.805	0.000621168473
0	32309	2.812	0.000265781264
0	32355	2.816	0.000310311654
0	32394	2.819	8.3865798e-05
0	32526	2.83	0.001000497774
0	32537	2.831	0.001022339736
0	32642	2.84	0.000998507819
0	32894	2.863	0.000872365722
0	33023	2.875	1.6269715e-05
0	33134	2.884	0.000173221589
0	33173	2.887	0.000320092871
0	33226	2.891	0.002269503902
0	33227	2.891	0.00043769915
0	33275	2.895	0.000321039591
0	33357	2.902	0.002668501379
0	33481	2.913	0.000158317873
0	33543	2.918	0.001759565878
0	33657	2.928	0.001696237296
0	33769	2.938	0.002128160273
0	33818	2.942	0.00071643522
0	34067	2.964	0.000483135183
0	34176	2.973	0.003851252334
0	34224	2.977	0.000989909312
0	34887	3.037	0.001147315806
0	34930	3.041	0.000112165661
0	34958	3.043	0.000702882183
0	35339	3.076	0.0018853293
0	35466	3.087	0.000570097284
0	35493	3.089	0.001880129128
0	35603	3.099	0.000613916716
0	35618	3.1	0.000900749553
0	35867	3.122	0.002675345016
0	35915	3.126	0.001578468088
0	35936	3.128	0.000871638392
0	35988	3.132	0.001164896377
0	36038	3.136	8.8689412e-05
0	36067	3.138	0.001520470194
0	36121	3.143	0.000393238124
0	36198	3.149	0.002735859185
0	36248	3.153	0.001846403155
0	36378	3.164	0.000991672045
0	36703	3.192	0.001844176581
0	37301	3.246	0.001743985866
0	37542	3.267	0.000731453267
0	37682	3.279	0.002429127888
0	38272	3.331	0.000533637853
0	38342	3.337	0.00208449447
0	38435	3.345	0.001123821368
0	38714	3.369	0.001274213846
0	38824	3.379	4.4003754e-05
0	38859	3.382	0.000335064029
0	39068	3.4	0.001354636146
0	39104	3.403	0.003572453527
0	39182	3.41	0.00196390217
0	39255	3.416	0.000168214725
0	39549	3.442	0.000531846937
1	35	0.001	0.001
1	37	0.001	0.001
1	1039	0.089	0.000569499493
1	1168	0.1	0.000159956835
1	1975	0.171	2.874053e-05
1	2411	0.209	0.000230790928
1	3220	0.281	0.00042565393
1	3848	0.334	0.000860384023
1	3959	0.343	0.000949467175
1	4615	0.403	0.000797569845
1	5307	0.463	0.000552409891
1	5912	0.514	0.000115817971
1	6943	0.606	0.000724019017
1	8369	0.732	6.2253903e-05
1	8439	0.738	0.000289526706
1	8789	0.769	0.00075508995
1	9429	0.825	0.000385797944
1	10341	0.903	0.000199935277
1	10741	0.938	0.000945692837
1	12743	1.106	0.000805168566
1	12939	1.123	0.000992233902
1	14038	1.218	0.000840446196
1	14167	1.228	0.000638299674
1	14573	1.264	0.000422406645
1	15697	1.362	0.000766864998
1	18150	1.577	0.000968661265
1	18875	1.639	0.000919483966
1	19164	1.665	0.000585816336
1	19496	1.694	0.000428080975
1	20804	1.808	2.5606715e-05
1	21565	1.873	0.000983938125
1	22181	1.927	0.00084648978
1	22799	1.982	0.000285705751
1	23449	2.039	5.5177158e-05
1	26746	2.329	0.000701466931
1	27890	2.429	0.000580696014
1	28876	2.517	4.7314261e-05
1	29737	2.592	0.000204956418
1	29941	2.609	0.000223378202
1	30361	2.644	0.000607140181
1	30572	2.662	0.000919497998
1	31074	2.705	0.000427515484
1	31666	2.756	0.000291879213
1	32229	2.805	0.000621168473
1	32355	2.816	0.000310311654
1	32394	2.819	8.3865798e-05
1	32642	2.84	0.000998507819
1	32894	2.863	0.000872365722
1	33023	2.875	1.6269715e-05
1	33134	2.884	0.000173221589
1	33173	2.887	0.000320092871
1	34930	3.041	0.000112165661
1	34958	3.043	0.000702882183
1	36121	3.143	0.000393238124
1	38272	3.331	0.000533637853
1	38859	3.382	0.000335064029
2	39	0.001	0.001
2	49	0.002	0.002
2	51	0.002	0.002
2	53	0.002	0.002
2	62	0.003	0.003
2	1027	0.088	0.000533206669
2	1206	0.103	0.000419652059
2	1626	0.14	0.000452137995
2	1821	0.157	0.000947472102
2	2050	0.177	0.001366780908
2	2112	0.182	1.9126958e-05
2	2386	0.207	0.000377309769
2	2493	0.216	0.00020166565
2	2508	0.217	0.000161629346
2	2847	0.247	0.000334093405
2	3118	0.271	0.000383339556
2	3540	0.308	0.001161409014
2	3552	0.309	0.00194245665
2	3650	0.317	0.001049470938
2	3700	0.321	0.002653356966
2	3837	0.333	0.00133599016
2	3901	0.338	0.000291761131
2	4199	0.365	0.00154935088
2	4593	0.401	0.000644567301
2	4633	0.404	0.00078933536
2	5045	0.441	0.002871868495
2	5061	0.442	0.00056340438
2	5241	0.458	0.000490717996
2	5294	0.462	0.00102200578
2	5363	0.467	0.000137797687
2	5537	0.482	0.001732226017
2	5551	0.483	0.000384727819
2	5705	0.497	0.001900740923
2	5801	0.505	0.001323777995
2	6377	0.556	0.001715023522
2	7499	0.655	0.000898490398
2	7516	0.656	0.000188514199
2	8053	0.704	0.000284936322
2	8189	0.716	0.001015347042
2	8553	0.748	0.00117012621
2	9031	0.79	0.000363753218
2	9057	0.792	0.001911288338
2	9194	0.804	0.002081405643
2	9542	0.834	4.4137397e-05
2	9544	0.834	0.000903010333
2	9671	0.845	0.002049807883
2	9756	0.852	0.000761634666
2	10048	0.878	0.002978613105
2	10259	0.896	0.000517635527
2	10464	0.913	0.0012183012
2	10466	0.913	0.00228055113
2	10925	0.953	0.001622826036
2	10966	0.956	0.000832571857
2	11292	0.983	0.000209231343
2	11316	0.985	0.000736149726
2	11631	1.012	0.000805835295
2	11668	1.015	0.000104723013
2	11720	1.019	0.001876736413
2	11940	1.038	0.001503798394
2	12001	1.043	0.001177879193
2	12072	1.049	0.000210055058
2	12109	1.052	0.001380133711
2	12126	1.053	0.000238968544
2	12181	1.058	0.000449725746
2	12328	1.07	0.000413482643
2	12409	1.077	0.002268142017
2	12942	1.123	0.000566495362
2	13144	1.141	0.001592152311
2	13172	1.143	0.000743892734
2	13360	1.159	0.001779019211
2	13388	1.161	0.000352452499
2	13525	1.173	0.001259271858
2	13727	1.191	0.001407321527
2	13790	1.196	0.00074074855
2	14104	1.223	0.001937064714
2	14296	1.239	0.000746032906
2	15159	1.315	0.001222512792
2	16015	1.39	0.000764941053
2	16247	1.41	1.0054907e-05
2	16569	1.439	0.001532565268
2	16619	1.443	0.000738248034
2	16744	1.454	0.001535855977
2	17246	1.499	0.000862982345
2	17429	1.514	7.9083444e-05
2	17699	1.537	0.001457543191
2	18375	1.596	0.0005328927
2	18564	1.612	0.000355881275
2	18612	1.616	0.001326875037
2	18659	1.62	0.000449180057
2	18775	1.63	0.002888663623
2	19568	1.7	0.001318126573
2	19798	1.72	0.000259306878
2	19822	1.722	0.001694801375
2	20212	1.756	0.001902565057
2	20400	1.772	4.3608942e-05
2	20792	1.807	0.002300468815
2	20831	1.81	6.5528105e-05
2	20939	1.819	0.001082168744
2	21147	1.837	0.001561599479
2	21171	1.839	0.0003251188
2	21473	1.865	0.001266905429
2	22148	1.924	0.000354637448
2	22508	1.956	0.00029192507
2	23026	2.002	0.000723093682
2	23065	2.005	5.8301334e-05
2	23985	2.086	0.001624464726
2	24198	2.104	0.000228528125
2	24216	2.105	0.000527924808
2	24537	2.134	0.001396395427
2	24628	2.142	0.002114595711
2	25080	2.182	0.001670493153
2	25151	2.188	0.002385413344
2	25634	2.231	0.001953852676
2	25696	2.236	0.000351210783
2	25816	2.247	0.001154725098
2	25986	2.262	0.000974812364
2	26172	2.278	0.001885574814
2	26802	2.333	0.001001604698
2	26919	2.343	0.000840437483
2	26977	2.348	0.00191048049
2	27219	2.369	0.00235727745
2	27929	2.432	0.000318339859
2	28193	2.455	3.2434632e-05
2	28316	2.466	0.001634150062
2	29076	2.534	0.001650604049
2	29484	2.57	0.001841473311
2	29598	2.58	0.000127374541
2	29878	2.604	0.000909760968
2	29926	2.608	0.00019154734
2	29943	2.609	0.00033535503
2	30251	2.635	0.001101319084
2	30465	2.652	0.001276391877
2	30643	2.668	0.000681772062
2	30932	2.693	0.00290731406
2	31062	2.704	0.001319975357
2	31540	2.745	0.000986677975
2	31721	2.76	0.000672466904
2	32526	2.83	0.001000497774
2	32537	2.831	0.001022339736
2	33226	2.891	0.002269503902
2	33227	2.891	0.00043769915
2	33275	2.895	0.000321039591
2	33481	2.913	0.000158317873
2	33657	2.928	0.001696237296
2	33769	2.938	0.002128160273
2	33818	2.942	0.00071643522
2	34067	2.964	0.000483135183
2	34224	2.977	0.000989909312
2	35466	3.087	0.000570097284
2	35493	3.089	0.001880129128
2	35603	3.099	0.000613916716
2	35618	3.1	0.000900749553
2	35936	3.128	0.000871638392
2	35988	3.132	0.001164896377
2	36038	3.136	8.8689412e-05
2	36067	3.138	0.001520470194
2	36248	3.153	0.001846403155
2	36378	3.164	0.000991672045
2	37301	3.246	0.001743985866
2	38435	3.345	0.001123821368
2	39068	3.4	0.001354636146
2	39182	3.41	0.00196390217
2	39255	3.416	0.000168214725
2	39549	3.442	0.000531846937
3	64	0.003	0.003
3	88	0.005	0.005
3	90	0.005	0.005
3	759	0.065	0.00377239037
3	961	0.082	0.002282946267
3	1291	0.11	0.001443730401
3	2428	0.21	0.0012262162
3	3401	0.296	0.00368079853
3	3569	0.31	2.9739627e-05
3	3905	0.338	0.001501869579
3	5313	0.463	0.002179365402
3	5373	0.468	0.00179070607
3	5468	0.476	0.001889481171
3	5819	0.506	0.000871634474
3	7004	0.611	0.00152429762
3	7642	0.667	0.003051091514
3	8018	0.701	0.002670737445
3	9386	0.821	0.00270770964
3	9768	0.853	0.002094375045
3	9871	0.862	0.000801775983
3	10245	0.895	0.000274466126
3	10261	0.896	0.003439415683
3	10396	0.907	0.001665888181
3	10771	0.94	0.001334887538
3	10856	0.947	0.000363164301
3	11203	0.976	0.000606343933
3	11245	0.979	0.001459422765
3	11268	0.981	0.002941078015
3	11605	1.01	0.002674320492
3	11778	1.024	0.003113148632
3	11927	1.037	0.003008542369
3	12034	1.046	0.0038111556
3	12377	1.074	0.00072670236
3	12563	1.09	0.000240528364
3	13323	1.156	0.002577819478
3	13364	1.159	0.001897294033
3	13645	1.184	0.003982001015
3	13872	1.203	0.003838431909
3	14121	1.224	0.000161114047
3	15685	1.361	0.000924684546
3	17284	1.502	0.002286289851
3	17357	1.508	0.004762188678
3	17358	1.508	0.004027300279
3	17446	1.515	0.000813710187
3	17858	1.551	0.00215256971
3	18304	1.59	0.002812821624
3	18754	1.628	0.000855208329
3	18948	1.645	0.002178360282
3	19543	1.698	0.000589556031
3	19628	1.705	0.003697551153
3	19994	1.737	0.000478515646
3	21216	1.843	0.00351827033
3	22717	1.974	0.002154390508
3	24117	2.097	0.001650482074
3	24271	2.11	0.001629981688
3	24966	2.172	0.001027121292
3	26369	2.296	0.00259474221
3	26450	2.303	0.002431825225
3	26555	2.312	0.002472371592
3	26691	2.324	0.000910737574
3	26726	2.327	0.001738008435
3	26792	2.332	0.001593104104
3	27396	2.385	0.002986260339
3	27819	2.422	0.002796100673
3	29173	2.542	0.002082086815
3	29542	2.575	0.000407031363
3	29726	2.591	0.003399062813
3	29832	2.6	0.000743263973
3	29946	2.609	0.004874305099
3	30152	2.627	0.003642873251
3	30239	2.634	0.001514069553
3	30265	2.636	0.002635039334
3	30341	2.642	0.000429629707
3	30453	2.651	0.001288750937
3	30603	2.664	0.0004614155
3	30803	2.682	0.003554525591
3	30901	2.69	0.000100116075
3	31181	2.714	0.002019328101
3	31507	2.742	0.000222389913
3	31936	2.779	0.00142992384
3	32309	2.812	0.000265781264
3	33357	2.902	0.002668501379
3	33543	2.918	0.001759565878
3	34176	2.973	0.003851252334
3	34887	3.037	0.001147315806
3	35339	3.076	0.0018853293
3	35867	3.122	0.002675345016
3	35915	3.126	0.001578468088
3	36198	3.149	0.002735859185
3	36703	3.192	0.001844176581
3	37542	3.267	0.000731453267
3	37682	3.279	0.002429127888
3	38342	3.337	0.00208449447
3	38714	3.369	0.001274213846
3	38824	3.379	4.4003754e-05
3	39104	3.403	0.003572453527

