version 3
run Load50-0-20241209-00:21:13-35196
attr configname Load50
attr datetime 20241209-00:21:13
attr datetimef 20241209-002113
attr experiment Load50
attr inifile omnetpp.ini
attr iterationvars ""
attr iterationvarsd ""
attr iterationvarsf ""
attr measurement ""
attr network RadioSch2
attr processid 35196
attr repetition 0
attr replication #0
attr resultdir results
attr runnumber 0
attr seedset 0
config description "low job arrival rate"
config *.usersCount 10
config *.scheduler.nrOfChannels 30
config *.scheduler.schedulingPeriod 1ms
config **.user[*].generator.netwload 0.5
config **.user[*].generator.nrUsers 10
config **.user[*].generator.nrOfChannels 30
config **.user[*].generator.nrPackets 100
config network RadioSch2
config sim-time-limit 100s
config cpu-time-limit 300s

vector 0 RadioSch2.sink lifetime:vector ETV
attr recordingmode vector
attr title "Packet Lifetime"
attr unit s
vector 1 RadioSch2.sink hpLifetime:vector ETV
attr recordingmode vector
attr title "HP Packet Lifetime"
attr unit s
vector 2 RadioSch2.sink mpLifetime:vector ETV
attr recordingmode vector
attr title "MP Packet Lifetime"
attr unit s
vector 3 RadioSch2.sink lpLifetime:vector ETV
attr recordingmode vector
attr title "LP Packet Lifetime"
attr unit s
0	35	0.001	0.001
0	37	0.001	0.001
0	39	0.001	0.001
0	49	0.002	0.002
0	51	0.002	0.002
0	53	0.002	0.002
0	62	0.003	0.003
0	64	0.003	0.003
0	88	0.005	0.005
0	90	0.005	0.005
0	472	0.039	0.002263434222
0	543	0.045	0.001834434571
0	648	0.054	0.000941699696
0	653	0.054	0.001519924001
0	718	0.06	9.5974101e-05
0	747	0.062	0.000451791235
0	819	0.068	0.00286623824
0	918	0.076	0.001518235194
0	963	0.08	0.005137123795
0	1010	0.084	0.000271282797
0	1023	0.085	0.000908669413
0	1149	0.096	0.000330936345
0	1229	0.103	0.000117726865
0	1234	0.103	0.000913754076
0	1324	0.111	0.003671138481
0	1395	0.117	7.8941851e-05
0	1482	0.125	0.001026385862
0	1514	0.127	0.00173572972
0	1538	0.129	0.002202680099
0	1561	0.131	0.000896977608
0	1601	0.134	0.001609913156
0	1603	0.134	0.000250767253
0	1693	0.142	0.000334711472
0	1822	0.153	0.001425612309
0	1894	0.159	0.002588972249
0	1950	0.164	0.000300440183
0	1989	0.167	0.000939685615
0	2014	0.169	0.002537542229
0	2040	0.171	0.001523113733
0	2153	0.181	0.001355546656
0	2265	0.191	0.001051840186
0	2378	0.201	0.000224154956
0	2408	0.203	0.000930700352
0	2445	0.206	0.002718615362
0	2616	0.221	0.000582743885
0	2847	0.242	0.001288748411
0	2917	0.248	0.000516458578
0	2989	0.254	0.00026509162
0	3149	0.268	0.000780907696
0	3214	0.274	0.001756276467
0	3313	0.282	0.000663392847
0	3349	0.285	0.002634970931
0	3387	0.288	0.000483810458
0	3405	0.289	0.00154807598
0	3418	0.29	0.001792466265
0	3493	0.296	0.000241586927
0	3542	0.3	0.000235941716
0	3623	0.307	0.000641210476
0	3674	0.311	0.003475155055
0	3782	0.32	0.001414038624
0	3888	0.329	0.001360407191
0	4071	0.345	0.000553187628
0	4418	0.376	0.000950395046
0	4545	0.387	0.000394630377
0	4572	0.389	4.964472e-05
0	4675	0.398	0.000573356717
0	4796	0.408	0.000673496308
0	4800	0.408	0.000876764781
0	4816	0.409	0.00048944828
0	4818	0.409	0.001809629889
0	4985	0.424	0.000814788375
0	5034	0.428	0.003172788252
0	5089	0.433	0.000575583992
0	5128	0.436	0.001377500183
0	5131	0.436	0.001483777543
0	5188	0.441	0.003927571107
0	5246	0.446	0.002041331849
0	5247	0.446	0.000655813313
0	5439	0.463	0.001797011808
0	5452	0.464	0.000260055269
0	5457	0.464	0.002588470288
0	5540	0.472	0.000662254261
0	5670	0.483	0.003272836224
0	5740	0.489	0.000627351527
0	5902	0.503	0.002950094078
0	5936	0.506	3.9917957e-05
0	5991	0.51	0.000357780306
0	6079	0.518	0.000574524095
0	6170	0.526	0.000545936709
0	6221	0.53	0.00265734255
0	6350	0.541	0.001370400385
0	6638	0.568	0.001402761685
0	6755	0.578	0.001731415443
0	6785	0.58	0.00012330023
0	6788	0.58	0.001483727608
0	7002	0.6	0.000744568225
0	7046	0.603	0.00206912056
0	7120	0.609	0.000891015468
0	7155	0.612	0.000559308056
0	7205	0.616	0.000281653031
0	7286	0.623	0.004149058061
0	7350	0.628	0.00495982405
0	7375	0.63	0.002320198021
0	7389	0.631	0.001490981363
0	7552	0.645	0.000503080069
0	7662	0.655	0.002860070645
0	7760	0.663	0.001855355952
0	7889	0.674	0.000704338543
0	7966	0.681	0.000705808574
0	7994	0.683	2.985942e-05
0	8042	0.687	0.000199311303
0	8054	0.688	0.000736245176
0	8073	0.689	0.000851158342
0	8425	0.72	0.001830838864
0	8464	0.723	0.001841005085
0	8645	0.739	0.001648475314
0	8732	0.746	0.000796285989
0	8784	0.75	0.000628795003
0	8787	0.75	0.000808139418
0	8799	0.751	0.000988675739
0	8881	0.758	0.001019808148
0	8965	0.765	0.00064660643
0	9051	0.772	0.000233593128
0	9078	0.774	9.5500608e-05
0	9140	0.779	0.000374013508
0	9164	0.781	0.002044377819
0	9325	0.795	0.000999591141
0	9378	0.799	0.001196541628
0	9623	0.821	0.001231251499
0	9652	0.823	0.000787855105
0	9834	0.839	0.001738246321
0	9977	0.851	0.003277329876
0	9989	0.852	0.001491693142
0	10035	0.856	0.001470110372
0	10108	0.862	0.001167698971
0	10122	0.863	0.000357810866
0	10139	0.864	0.003865592403
0	10167	0.866	0.000722730762
0	10180	0.867	0.001956773422
0	10322	0.879	0.000459496931
0	10392	0.885	0.000541835611
0	10461	0.891	0.000759580151
0	10498	0.894	0.000371497347
0	10571	0.9	0.001429975792
0	10619	0.904	0.000987384616
0	10726	0.913	0.000601786457
0	10736	0.914	6.8311654e-05
0	10911	0.929	0.000759115587
0	10944	0.931	0.001426439874
0	10995	0.936	0.002928801273
0	11281	0.962	6.3325128e-05
0	11296	0.963	0.000752334536
0	11431	0.975	0.000815797948
0	11432	0.975	0.000662786073
0	11445	0.976	0.001652245915
0	11475	0.978	0.00147787271
0	11510	0.981	0.000806583807
0	11557	0.985	0.000484993173
0	11629	0.991	0.000489857194
0	11816	1.007	0.000849666498
0	12077	1.03	6.6431436e-05
0	12089	1.031	0.00093070406
0	12235	1.044	0.001507693133
0	12246	1.045	0.000259228628
0	12289	1.048	0.001975507302
0	12409	1.059	0.001128265638
0	12522	1.069	5.7426593e-05
0	12537	1.07	0.000518045876
0	12540	1.07	0.003936569569
0	12622	1.077	0.001787057928
0	12773	1.09	0.002969120549
0	12859	1.098	0.000550337584
0	12905	1.102	0.00146465994
0	13221	1.13	0.001046029614
0	13346	1.141	0.001655295498
0	13373	1.143	0.000551985605
0	13585	1.163	0.000397276671
0	13690	1.172	0.003110701915
0	13790	1.181	0.002884585606
0	13864	1.187	0.000111112328
0	13890	1.189	0.000802854875
0	13926	1.192	0.000604192652
0	13942	1.193	0.000622387237
0	13957	1.194	0.002269466208
0	14017	1.199	0.000697547569
0	14193	1.214	0.001403581553
0	14243	1.218	0.000816979599
0	14346	1.227	0.000698631845
0	14392	1.231	0.000979751002
0	14530	1.243	0.000856154204
0	14584	1.247	0.001279173104
0	14612	1.249	0.001779628945
0	14638	1.251	0.001336631962
0	14673	1.254	0.000828975851
0	14987	1.282	0.002072010655
0	15048	1.287	0.001157120825
0	15133	1.295	0.00092434707
0	15192	1.3	0.000257100961
0	15230	1.303	0.002422782722
0	15246	1.304	0.000747460986
0	15248	1.304	0.00049891298
0	15261	1.305	0.000415341267
0	15288	1.307	0.000943317296
0	15314	1.309	0.000404707777
0	15508	1.326	0.000367646366
0	15567	1.331	0.003283318308
0	15698	1.342	0.002526092149
0	15709	1.343	0.001624071594
0	15710	1.343	0.00137817828
0	15738	1.345	0.001601002334
0	15791	1.35	0.00150246103
0	15820	1.352	0.001175083179
0	15893	1.358	0.001237204165
0	15915	1.36	0.000931134786
0	15953	1.363	0.000117771028
0	16061	1.372	0.000912922001
0	16192	1.383	0.000614379288
0	16198	1.383	0.000835859492
0	16471	1.407	0.000490535486
0	16665	1.424	0.00038357311
0	16714	1.428	0.001693379664
0	16798	1.435	0.00209140399
0	17049	1.457	0.001017005737
0	17230	1.473	0.002768990017
0	17386	1.487	0.002194211571
0	17445	1.492	0.002114808014
0	17556	1.502	4.931094e-06
0	17629	1.508	0.000913142227
0	17666	1.511	0.000560116481
0	17759	1.519	0.000574322676
0	17925	1.533	0.000720893949
0	18105	1.549	0.00025234966
0	18195	1.556	0.00126040953
0	18232	1.559	0.001495089038
0	18271	1.562	0.002944446134
0	18305	1.565	0.000219852108
0	18401	1.574	0.001205177464
0	18761	1.606	0.000430256632
0	18787	1.608	0.001179127646
0	18865	1.615	0.000356233781
0	18946	1.622	0.001024452516
0	18957	1.623	0.002356658689
0	19078	1.633	0.001029423053
0	19088	1.634	0.001202811652
0	19091	1.634	0.002359858375
0	19185	1.642	0.00108681376
0	19334	1.655	0.001505689868
0	19385	1.659	0.000460145072
0	19398	1.66	0.000690909194
0	19441	1.663	0.001511256362
0	19444	1.663	0.001724096936
0	19571	1.674	0.000586669411
0	19600	1.676	0.001572878654
0	19770	1.691	5.2780975e-05
0	19813	1.694	0.000371970111
0	19910	1.703	0.000109735743
0	20130	1.723	0.000539083326
0	20226	1.731	0.001034174164
0	20444	1.75	0.002405264285
0	20502	1.755	0.000225203034
0	20563	1.76	0.000622445455
0	20590	1.762	6.4715975e-05
0	20649	1.767	0.001784575197
0	20674	1.769	0.000448209901
0	20775	1.777	0.000549602091
0	20981	1.795	0.000532744991
0	21035	1.799	0.000166691517
0	21095	1.804	0.000384782891
0	21097	1.804	0.001347092946
0	21173	1.81	0.001150675011
0	21186	1.811	0.000741981927
0	21188	1.811	0.001982432673
0	21200	1.812	0.000320003667
0	21307	1.821	0.000780322561
0	21335	1.823	0.00026732907
0	21519	1.839	0.000953622937
0	21531	1.84	0.000137099772
0	21571	1.843	0.000875095785
0	21576	1.843	0.004020184655
0	21597	1.845	0.000733905621
0	21701	1.854	0.000383911898
0	21749	1.858	0.00064403571
0	22229	1.9	0.003231048544
0	22286	1.905	0.001869541368
0	22328	1.909	0.000613058267
0	22444	1.919	2.256199e-06
0	22588	1.932	0.000818918424
0	22688	1.94	2.1399039e-05
0	22691	1.94	0.00273366367
0	22841	1.953	0.000146057381
0	22871	1.955	0.001203277632
0	22902	1.958	0.004400493644
0	23059	1.972	0.000178888353
0	23099	1.975	0.002608289149
0	23265	1.99	0.002424794582
0	23280	1.991	0.000721357431
0	23318	1.994	0.001091125482
0	23413	2.002	0.001200515495
0	23502	2.01	0.001257626801
0	23753	2.032	0.000358740927
0	23925	2.047	0.00015190205
0	23965	2.05	0.00097879255
0	23998	2.052	0.001483759642
0	24000	2.052	0.000872718406
0	24096	2.06	0.00057647184
0	24154	2.065	0.000286964047
0	24186	2.067	0.000769501249
0	24235	2.071	0.001305971814
0	24314	2.078	0.00248968987
0	24338	2.08	0.000114973487
0	24404	2.085	0.001103219032
0	24430	2.087	0.002453307873
0	24670	2.108	0.000134735839
0	24699	2.11	0.001085797187
0	24911	2.129	0.000791790894
0	24941	2.131	0.001948826071
0	24979	2.134	0.001783442577
0	25052	2.14	0.000121835372
0	25114	2.145	0.000202803484
0	25116	2.145	0.002823649204
0	25321	2.163	0.000785584817
0	25534	2.182	0.004746594231
0	25659	2.193	0.000821620995
0	25692	2.195	0.001105040426
0	25756	2.201	0.001494529673
0	25797	2.204	0.000366824152
0	25845	2.208	0.001158064595
0	25920	2.214	0.000675420394
0	26021	2.223	0.001381380237
0	26080	2.228	0.001540517167
0	26157	2.235	0.001312045989
0	26200	2.239	0.000779955282
0	26311	2.248	0.001714243947
0	26421	2.258	0.001462747018
0	26596	2.273	1.4023793e-05
0	26858	2.296	0.001401946678
0	26887	2.298	0.00271065639
0	26889	2.298	0.001800025639
0	26912	2.3	0.000687217827
0	26962	2.304	4.6482233e-05
0	26965	2.304	0.001478964005
0	26988	2.306	0.00026285072
0	27281	2.332	6.078096e-05
0	27463	2.348	0.00240817711
0	27557	2.356	0.002617549118
0	27581	2.358	5.2875916e-05
0	27614	2.36	0.001363143331
0	27623	2.361	0.00151723801
0	27867	2.383	0.00143181352
0	27903	2.386	0.000110019032
0	27928	2.388	0.00059634186
0	27968	2.391	0.001698261128
0	28154	2.407	0.000765506367
0	28287	2.418	0.001899769818
0	28299	2.419	0.003337016554
0	28322	2.421	0.003465917943
0	28450	2.432	0.001786498329
0	28643	2.449	0.001371711531
0	28657	2.45	0.001319441115
0	28740	2.457	3.6811779e-05
0	28742	2.457	2.9702377e-05
0	28803	2.462	0.000287762181
0	28826	2.464	0.002273029111
0	28960	2.476	0.002207689342
0	28985	2.478	0.004631956393
0	29008	2.48	0.000530160055
0	29160	2.494	0.000846897825
0	29242	2.501	6.8422273e-05
0	29339	2.509	0.000338648116
0	29375	2.512	0.000240341583
0	29378	2.512	0.002271103246
0	29467	2.519	0.004393334762
0	29468	2.519	0.00280932897
0	29677	2.538	0.004501522199
0	29689	2.539	0.001021802159
0	29872	2.555	0.002277522936
0	29944	2.561	0.000706147617
0	29967	2.563	0.001904959696
0	30084	2.573	0.000111153726
0	30188	2.582	0.000435821478
0	30265	2.589	0.002557056373
0	30294	2.591	0.001353048498
0	30308	2.592	0.002558773613
0	30489	2.608	6.785213e-05
0	30521	2.61	0.001014300741
0	30638	2.62	7.8501685e-05
0	30641	2.62	0.001453782146
0	30838	2.636	0.000685179607
0	30840	2.636	0.002923510807
0	30849	2.637	0.00173212723
0	30894	2.641	0.001537976956
0	30953	2.646	0.000258964019
0	31139	2.663	0.000241782076
0	31155	2.664	0.00046313684
0	31271	2.674	0.000942757556
0	31352	2.681	0.000218874989
0	31428	2.687	0.002726617121
0	31469	2.69	0.001992134776
0	31473	2.69	0.00152606523
0	31517	2.694	0.000887602557
0	31634	2.704	0.000373006369
0	31724	2.711	0.002226165898
0	31725	2.711	0.000395380602
0	31780	2.716	0.000461851807
0	31818	2.719	0.000560245928
0	31853	2.722	0.00050291345
0	31882	2.724	0.000492626368
0	31886	2.724	0.000418308199
0	31936	2.728	0.000707221344
0	32006	2.734	0.004271734963
0	32122	2.744	0.001253684228
0	32285	2.758	0.003671193584
0	32426	2.77	0.000556153781
0	32612	2.786	0.001455330404
0	32647	2.789	0.00099225101
0	32774	2.8	0.000922942353
0	32784	2.801	0.001039237823
0	32888	2.81	0.001335198556
0	32925	2.813	0.000597659125
0	32979	2.817	0.002326666475
0	33006	2.819	0.001088137461
0	33036	2.821	0.001283079094
0	33102	2.827	0.000326654189
0	33143	2.83	0.001663008669
0	33206	2.835	0.004351263216
0	33229	2.837	0.000212638456
0	33267	2.84	0.001915968733
0	33307	2.843	0.001276717172
0	33417	2.853	0.000728770327
0	33470	2.857	0.003839909837
0	33644	2.872	0.000565117327
0	33665	2.874	0.00227147618
0	33758	2.882	0.00090929691
0	33799	2.885	0.000462405904
0	33801	2.885	0.001550100899
0	33839	2.888	0.001314131888
0	33872	2.89	0.001797966031
0	33906	2.893	0.003484050357
0	33955	2.897	0.001369479224
0	34079	2.908	0.00018473955
0	34198	2.918	0.000647467916
0	34396	2.935	0.002457437859
0	34410	2.936	3.5096423e-05
0	34541	2.948	0.00013559623
0	34578	2.951	0.002405924347
0	34625	2.955	0.001444981677
0	34738	2.965	0.002683319056
0	34785	2.969	0.001148436924
0	34868	2.976	0.002765563483
0	34902	2.979	0.001346471051
0	35257	3.01	0.000326583168
0	35285	3.012	0.003954077018
0	35365	3.019	0.002383771652
0	35377	3.02	0.001523935339
0	35462	3.027	0.002514885415
0	35555	3.035	0.000307106432
0	35626	3.041	0.002317166469
0	35660	3.044	0.00111656705
0	35775	3.054	0.001118869075
0	35844	3.06	0.000427547205
0	35942	3.069	0.001399220372
0	36028	3.076	0.001053275415
0	36054	3.078	0.000693454939
0	36057	3.078	0.001556425555
0	36286	3.099	0.000386333814
0	36409	3.109	0.000286972182
0	36445	3.112	0.003222301667
0	36536	3.12	0.000525241055
0	36848	3.147	0.001878235189
0	36850	3.147	0.003834216012
0	36916	3.153	0.000154368392
0	36920	3.153	0.001815555513
0	36934	3.154	0.000131178876
0	36945	3.155	0.000619250306
0	37064	3.165	0.00046793608
0	37217	3.178	0.001288726218
0	37240	3.18	0.001557941794
0	37304	3.185	0.000457149464
0	37369	3.191	0.000438216489
0	37400	3.193	0.001436246915
0	37474	3.199	0.0007378185
0	37692	3.218	0.001525392485
0	37830	3.23	0.000277693072
0	38018	3.246	0.000366067647
0	38089	3.252	0.00022255981
0	38092	3.252	0.001518564486
0	38129	3.255	0.000808883667
0	38215	3.262	0.001560969795
0	38284	3.268	0.001737823513
0	38299	3.269	0.00021876878
0	38329	3.271	0.001708337332
0	38332	3.271	0.000292500019
0	38483	3.284	0.000444313701
0	38522	3.287	0.000683145529
0	38616	3.295	0.003062062877
0	38676	3.3	0.000468252693
0	38864	3.316	0.00185791897
0	38904	3.319	0.001823134046
0	38917	3.32	0.001135614162
0	38945	3.322	0.000970328575
0	39013	3.328	0.000271265449
0	39123	3.338	0.000863809367
0	39143	3.339	0.000514805404
0	39158	3.34	0.001737093041
0	39186	3.342	0.001259311582
0	39224	3.345	0.002153158265
0	39332	3.355	0.000357723532
0	39395	3.36	0.001224516744
0	39664	3.384	4.0360095e-05
0	39719	3.388	0.003630619855
0	39768	3.392	0.001428291338
0	39947	3.408	0.001630729937
0	39962	3.409	0.000240017966
0	40020	3.414	0.001913457548
0	40124	3.423	0.000790383058
0	40194	3.429	0.000246226146
0	40418	3.449	0.001779907603
0	40458	3.452	0.000824102571
0	40471	3.453	0.001210913614
0	40499	3.455	0.000474448662
0	40619	3.465	0.000281828432
0	40632	3.466	0.000152652791
0	40683	3.47	0.000893229793
0	40686	3.47	9.4930269e-05
0	41031	3.5	0.000105825895
0	41080	3.504	0.000672241565
0	41084	3.504	0.001447023672
0	41118	3.507	0.00083087149
0	41161	3.51	0.000800909508
0	41163	3.51	0.000892094903
0	41201	3.513	0.000525589697
0	41215	3.514	0.001677979789
0	41263	3.518	0.000119624105
0	41357	3.526	0.002482113384
0	41527	3.541	0.000985864842
0	41556	3.543	0.001705547004
0	41603	3.547	0.000622453727
0	41633	3.549	0.000701621756
0	41957	3.578	0.000941596468
0	41973	3.579	0.000631830788
0	42013	3.582	0.001012730998
0	42026	3.583	0.003670689307
0	42083	3.588	0.002996518809
0	42107	3.59	0.000953919812
0	42147	3.593	0.000929930597
0	42246	3.601	0.003047587998
0	42296	3.605	0.001069888236
0	42312	3.606	3.8457874e-05
0	42509	3.623	0.002583013231
0	42535	3.625	0.002109657333
0	42546	3.626	0.001206594564
0	42585	3.629	0.000658217687
0	42668	3.636	0.000156252877
0	42684	3.637	0.000180355372
0	42767	3.644	0.000637194051
0	43039	3.668	0.000612465904
0	43142	3.677	0.00282281467
0	43314	3.692	0.000963789571
0	43316	3.692	0.000828625138
0	43329	3.693	0.000681734648
0	43481	3.706	0.001752163201
0	43632	3.719	0.000771119433
0	43660	3.721	8.2306351e-05
0	44023	3.753	0.001658097038
0	44116	3.761	0.000796455707
0	44388	3.785	0.000600549981
0	44400	3.786	0.001326248848
0	44590	3.802	0.001076359867
0	44602	3.803	0.002949376871
0	44683	3.81	0.0042907208
0	44805	3.821	0.00042282231
0	44845	3.824	0.00141634773
0	44982	3.836	0.002991413587
0	45007	3.838	0.003050563595
0	45059	3.842	0.002824741412
0	45083	3.844	0.001612332744
0	45107	3.846	0.001378705918
0	45234	3.857	0.000700336286
0	45286	3.861	0.000717927744
0	45342	3.866	0.001391121441
0	45434	3.874	0.000157011322
0	45476	3.877	4.0038751e-05
0	45513	3.88	0.002203247692
0	45611	3.888	0.001268423576
0	45668	3.893	0.001383021835
0	45800	3.904	0.001955422145
1	35	0.001	0.001
1	37	0.001	0.001
1	648	0.054	0.000941699696
1	718	0.06	9.5974101e-05
1	1229	0.103	0.000117726865
1	1395	0.117	7.8941851e-05
1	1693	0.142	0.000334711472
1	2917	0.248	0.000516458578
1	2989	0.254	0.00026509162
1	3387	0.288	0.000483810458
1	3623	0.307	0.000641210476
1	4545	0.387	0.000394630377
1	4572	0.389	4.964472e-05
1	4675	0.398	0.000573356717
1	4796	0.408	0.000673496308
1	5089	0.433	0.000575583992
1	5452	0.464	0.000260055269
1	5540	0.472	0.000662254261
1	5740	0.489	0.000627351527
1	5936	0.506	3.9917957e-05
1	6170	0.526	0.000545936709
1	6785	0.58	0.00012330023
1	7002	0.6	0.000744568225
1	7205	0.616	0.000281653031
1	7966	0.681	0.000705808574
1	8054	0.688	0.000736245176
1	8799	0.751	0.000988675739
1	10122	0.863	0.000357810866
1	10461	0.891	0.000759580151
1	10498	0.894	0.000371497347
1	10736	0.914	6.8311654e-05
1	10911	0.929	0.000759115587
1	11431	0.975	0.000815797948
1	11432	0.975	0.000662786073
1	12246	1.045	0.000259228628
1	12522	1.069	5.7426593e-05
1	12537	1.07	0.000518045876
1	12859	1.098	0.000550337584
1	13585	1.163	0.000397276671
1	13926	1.192	0.000604192652
1	14392	1.231	0.000979751002
1	14530	1.243	0.000856154204
1	14673	1.254	0.000828975851
1	15133	1.295	0.00092434707
1	15261	1.305	0.000415341267
1	15288	1.307	0.000943317296
1	15314	1.309	0.000404707777
1	15915	1.36	0.000931134786
1	16192	1.383	0.000614379288
1	16665	1.424	0.00038357311
1	17556	1.502	4.931094e-06
1	17759	1.519	0.000574322676
1	17925	1.533	0.000720893949
1	18105	1.549	0.00025234966
1	19398	1.66	0.000690909194
1	19770	1.691	5.2780975e-05
1	20981	1.795	0.000532744991
1	21095	1.804	0.000384782891
1	21186	1.811	0.000741981927
1	21200	1.812	0.000320003667
1	21531	1.84	0.000137099772
1	21571	1.843	0.000875095785
1	21597	1.845	0.000733905621
1	22588	1.932	0.000818918424
1	23925	2.047	0.00015190205
1	23965	2.05	0.00097879255
1	24154	2.065	0.000286964047
1	24670	2.108	0.000134735839
1	24911	2.129	0.000791790894
1	25659	2.193	0.000821620995
1	26200	2.239	0.000779955282
1	26988	2.306	0.00026285072
1	29375	2.512	0.000240341583
1	30489	2.608	6.785213e-05
1	31139	2.663	0.000241782076
1	31155	2.664	0.00046313684
1	31634	2.704	0.000373006369
1	31853	2.722	0.00050291345
1	31882	2.724	0.000492626368
1	32426	2.77	0.000556153781
1	32925	2.813	0.000597659125
1	33102	2.827	0.000326654189
1	33417	2.853	0.000728770327
1	33799	2.885	0.000462405904
1	34541	2.948	0.00013559623
1	35844	3.06	0.000427547205
1	36054	3.078	0.000693454939
1	36286	3.099	0.000386333814
1	36409	3.109	0.000286972182
1	36536	3.12	0.000525241055
1	36916	3.153	0.000154368392
1	36945	3.155	0.000619250306
1	37369	3.191	0.000438216489
1	37830	3.23	0.000277693072
1	38018	3.246	0.000366067647
1	38089	3.252	0.00022255981
1	38129	3.255	0.000808883667
1	38299	3.269	0.00021876878
1	38676	3.3	0.000468252693
1	39123	3.338	0.000863809367
1	39143	3.339	0.000514805404
1	39332	3.355	0.000357723532
1	39664	3.384	4.0360095e-05
1	40124	3.423	0.000790383058
1	40632	3.466	0.000152652791
1	40683	3.47	0.000893229793
1	41080	3.504	0.000672241565
1	41118	3.507	0.00083087149
1	41527	3.541	0.000985864842
1	41603	3.547	0.000622453727
1	41957	3.578	0.000941596468
1	41973	3.579	0.000631830788
1	45434	3.874	0.000157011322
2	39	0.001	0.001
2	49	0.002	0.002
2	51	0.002	0.002
2	53	0.002	0.002
2	62	0.003	0.003
2	653	0.054	0.001519924001
2	747	0.062	0.000451791235
2	1010	0.084	0.000271282797
2	1023	0.085	0.000908669413
2	1149	0.096	0.000330936345
2	1482	0.125	0.001026385862
2	1561	0.131	0.000896977608
2	1822	0.153	0.001425612309
2	1950	0.164	0.000300440183
2	2153	0.181	0.001355546656
2	2265	0.191	0.001051840186
2	2378	0.201	0.000224154956
2	2616	0.221	0.000582743885
2	2847	0.242	0.001288748411
2	3214	0.274	0.001756276467
2	3313	0.282	0.000663392847
2	3349	0.285	0.002634970931
2	3405	0.289	0.00154807598
2	3418	0.29	0.001792466265
2	3542	0.3	0.000235941716
2	4418	0.376	0.000950395046
2	4816	0.409	0.00048944828
2	4985	0.424	0.000814788375
2	5128	0.436	0.001377500183
2	5439	0.463	0.001797011808
2	6079	0.518	0.000574524095
2	6638	0.568	0.001402761685
2	6755	0.578	0.001731415443
2	6788	0.58	0.001483727608
2	7155	0.612	0.000559308056
2	7375	0.63	0.002320198021
2	7552	0.645	0.000503080069
2	7662	0.655	0.002860070645
2	7760	0.663	0.001855355952
2	7889	0.674	0.000704338543
2	7994	0.683	2.985942e-05
2	8073	0.689	0.000851158342
2	8425	0.72	0.001830838864
2	8645	0.739	0.001648475314
2	8732	0.746	0.000796285989
2	8784	0.75	0.000628795003
2	8787	0.75	0.000808139418
2	8881	0.758	0.001019808148
2	9078	0.774	9.5500608e-05
2	9140	0.779	0.000374013508
2	9325	0.795	0.000999591141
2	9623	0.821	0.001231251499
2	9652	0.823	0.000787855105
2	9834	0.839	0.001738246321
2	10035	0.856	0.001470110372
2	10108	0.862	0.001167698971
2	10167	0.866	0.000722730762
2	10322	0.879	0.000459496931
2	10392	0.885	0.000541835611
2	10619	0.904	0.000987384616
2	10995	0.936	0.002928801273
2	11281	0.962	6.3325128e-05
2	11296	0.963	0.000752334536
2	11445	0.976	0.001652245915
2	11510	0.981	0.000806583807
2	11557	0.985	0.000484993173
2	11629	0.991	0.000489857194
2	11816	1.007	0.000849666498
2	12089	1.031	0.00093070406
2	12235	1.044	0.001507693133
2	12409	1.059	0.001128265638
2	12622	1.077	0.001787057928
2	12905	1.102	0.00146465994
2	13221	1.13	0.001046029614
2	13346	1.141	0.001655295498
2	13373	1.143	0.000551985605
2	13864	1.187	0.000111112328
2	13890	1.189	0.000802854875
2	13942	1.193	0.000622387237
2	14017	1.199	0.000697547569
2	14193	1.214	0.001403581553
2	14243	1.218	0.000816979599
2	14346	1.227	0.000698631845
2	14638	1.251	0.001336631962
2	15048	1.287	0.001157120825
2	15192	1.3	0.000257100961
2	15246	1.304	0.000747460986
2	15248	1.304	0.00049891298
2	15508	1.326	0.000367646366
2	15698	1.342	0.002526092149
2	15709	1.343	0.001624071594
2	15710	1.343	0.00137817828
2	15738	1.345	0.001601002334
2	15791	1.35	0.00150246103
2	15820	1.352	0.001175083179
2	15893	1.358	0.001237204165
2	15953	1.363	0.000117771028
2	16061	1.372	0.000912922001
2	16471	1.407	0.000490535486
2	16714	1.428	0.001693379664
2	17049	1.457	0.001017005737
2	17230	1.473	0.002768990017
2	17386	1.487	0.002194211571
2	17666	1.511	0.000560116481
2	18232	1.559	0.001495089038
2	18305	1.565	0.000219852108
2	18401	1.574	0.001205177464
2	18787	1.608	0.001179127646
2	18865	1.615	0.000356233781
2	18946	1.622	0.001024452516
2	19088	1.634	0.001202811652
2	19334	1.655	0.001505689868
2	19385	1.659	0.000460145072
2	19441	1.663	0.001511256362
2	19444	1.663	0.001724096936
2	19571	1.674	0.000586669411
2	20130	1.723	0.000539083326
2	20226	1.731	0.001034174164
2	20444	1.75	0.002405264285
2	20502	1.755	0.000225203034
2	20563	1.76	0.000622445455
2	20590	1.762	6.4715975e-05
2	20649	1.767	0.001784575197
2	20674	1.769	0.000448209901
2	20775	1.777	0.000549602091
2	21035	1.799	0.000166691517
2	21097	1.804	0.001347092946
2	21173	1.81	0.001150675011
2	21188	1.811	0.001982432673
2	21307	1.821	0.000780322561
2	21335	1.823	0.00026732907
2	21701	1.854	0.000383911898
2	21749	1.858	0.00064403571
2	22328	1.909	0.000613058267
2	22444	1.919	2.256199e-06
2	22688	1.94	2.1399039e-05
2	22841	1.953	0.000146057381
2	23059	1.972	0.000178888353
2	23265	1.99	0.002424794582
2	23280	1.991	0.000721357431
2	23318	1.994	0.001091125482
2	23413	2.002	0.001200515495
2	23502	2.01	0.001257626801
2	23753	2.032	0.000358740927
2	23998	2.052	0.001483759642
2	24000	2.052	0.000872718406
2	24096	2.06	0.00057647184
2	24186	2.067	0.000769501249
2	24235	2.071	0.001305971814
2	24314	2.078	0.00248968987
2	24338	2.08	0.000114973487
2	24404	2.085	0.001103219032
2	24941	2.131	0.001948826071
2	24979	2.134	0.001783442577
2	25114	2.145	0.000202803484
2	25321	2.163	0.000785584817
2	25756	2.201	0.001494529673
2	25797	2.204	0.000366824152
2	26021	2.223	0.001381380237
2	26080	2.228	0.001540517167
2	26157	2.235	0.001312045989
2	26311	2.248	0.001714243947
2	26421	2.258	0.001462747018
2	26596	2.273	1.4023793e-05
2	26858	2.296	0.001401946678
2	26912	2.3	0.000687217827
2	26962	2.304	4.6482233e-05
2	26965	2.304	0.001478964005
2	27581	2.358	5.2875916e-05
2	27623	2.361	0.00151723801
2	27867	2.383	0.00143181352
2	27903	2.386	0.000110019032
2	27928	2.388	0.00059634186
2	27968	2.391	0.001698261128
2	28154	2.407	0.000765506367
2	28287	2.418	0.001899769818
2	28450	2.432	0.001786498329
2	28643	2.449	0.001371711531
2	28740	2.457	3.6811779e-05
2	28742	2.457	2.9702377e-05
2	28803	2.462	0.000287762181
2	28826	2.464	0.002273029111
2	29008	2.48	0.000530160055
2	29160	2.494	0.000846897825
2	29242	2.501	6.8422273e-05
2	29339	2.509	0.000338648116
2	29378	2.512	0.002271103246
2	29689	2.539	0.001021802159
2	29944	2.561	0.000706147617
2	29967	2.563	0.001904959696
2	30084	2.573	0.000111153726
2	30188	2.582	0.000435821478
2	30265	2.589	0.002557056373
2	30294	2.591	0.001353048498
2	30521	2.61	0.001014300741
2	30638	2.62	7.8501685e-05
2	30641	2.62	0.001453782146
2	30849	2.637	0.00173212723
2	30894	2.641	0.001537976956
2	30953	2.646	0.000258964019
2	31271	2.674	0.000942757556
2	31352	2.681	0.000218874989
2	31469	2.69	0.001992134776
2	31780	2.716	0.000461851807
2	31818	2.719	0.000560245928
2	31886	2.724	0.000418308199
2	31936	2.728	0.000707221344
2	32122	2.744	0.001253684228
2	32647	2.789	0.00099225101
2	32784	2.801	0.001039237823
2	32888	2.81	0.001335198556
2	33006	2.819	0.001088137461
2	33143	2.83	0.001663008669
2	33229	2.837	0.000212638456
2	33267	2.84	0.001915968733
2	33307	2.843	0.001276717172
2	33644	2.872	0.000565117327
2	33665	2.874	0.00227147618
2	33758	2.882	0.00090929691
2	33801	2.885	0.001550100899
2	33839	2.888	0.001314131888
2	33872	2.89	0.001797966031
2	34079	2.908	0.00018473955
2	34198	2.918	0.000647467916
2	34410	2.936	3.5096423e-05
2	34738	2.965	0.002683319056
2	34785	2.969	0.001148436924
2	34902	2.979	0.001346471051
2	35257	3.01	0.000326583168
2	35365	3.019	0.002383771652
2	35377	3.02	0.001523935339
2	35555	3.035	0.000307106432
2	35660	3.044	0.00111656705
2	35775	3.054	0.001118869075
2	35942	3.069	0.001399220372
2	36028	3.076	0.001053275415
2	36057	3.078	0.001556425555
2	36848	3.147	0.001878235189
2	36934	3.154	0.000131178876
2	37240	3.18	0.001557941794
2	37400	3.193	0.001436246915
2	37474	3.199	0.0007378185
2	37692	3.218	0.001525392485
2	38092	3.252	0.001518564486
2	38284	3.268	0.001737823513
2	38329	3.271	0.001708337332
2	38483	3.284	0.000444313701
2	38522	3.287	0.000683145529
2	38864	3.316	0.00185791897
2	38904	3.319	0.001823134046
2	38917	3.32	0.001135614162
2	38945	3.322	0.000970328575
2	39013	3.328	0.000271265449
2	39158	3.34	0.001737093041
2	39186	3.342	0.001259311582
2	39395	3.36	0.001224516744
2	39768	3.392	0.001428291338
2	39962	3.409	0.000240017966
2	40020	3.414	0.001913457548
2	40194	3.429	0.000246226146
2	40418	3.449	0.001779907603
2	40458	3.452	0.000824102571
2	40471	3.453	0.001210913614
2	40499	3.455	0.000474448662
2	40619	3.465	0.000281828432
2	40686	3.47	9.4930269e-05
2	41031	3.5	0.000105825895
2	41084	3.504	0.001447023672
2	41161	3.51	0.000800909508
2	41201	3.513	0.000525589697
2	41215	3.514	0.001677979789
2	41263	3.518	0.000119624105
2	41556	3.543	0.001705547004
2	41633	3.549	0.000701621756
2	42013	3.582	0.001012730998
2	42107	3.59	0.000953919812
2	42147	3.593	0.000929930597
2	42296	3.605	0.001069888236
2	42312	3.606	3.8457874e-05
2	42546	3.626	0.001206594564
2	42585	3.629	0.000658217687
2	42668	3.636	0.000156252877
2	42684	3.637	0.000180355372
2	42767	3.644	0.000637194051
2	43039	3.668	0.000612465904
2	43314	3.692	0.000963789571
2	43316	3.692	0.000828625138
2	43329	3.693	0.000681734648
2	43481	3.706	0.001752163201
2	43632	3.719	0.000771119433
2	43660	3.721	8.2306351e-05
2	44023	3.753	0.001658097038
2	44116	3.761	0.000796455707
2	44388	3.785	0.000600549981
2	44400	3.786	0.001326248848
2	44590	3.802	0.001076359867
2	44805	3.821	0.00042282231
2	44845	3.824	0.00141634773
2	45083	3.844	0.001612332744
2	45107	3.846	0.001378705918
2	45234	3.857	0.000700336286
2	45342	3.866	0.001391121441
2	45476	3.877	4.0038751e-05
2	45513	3.88	0.002203247692
2	45668	3.893	0.001383021835
2	45800	3.904	0.001955422145
3	64	0.003	0.003
3	88	0.005	0.005
3	90	0.005	0.005
3	472	0.039	0.002263434222
3	543	0.045	0.001834434571
3	819	0.068	0.00286623824
3	918	0.076	0.001518235194
3	963	0.08	0.005137123795
3	1234	0.103	0.000913754076
3	1324	0.111	0.003671138481
3	1514	0.127	0.00173572972
3	1538	0.129	0.002202680099
3	1601	0.134	0.001609913156